   * xtb version 6.3.3 (7355c4f) compiled by 'conda@14e9545d6667' on 2020-09-17
          program call               : xtb /home/svss/Project-DBcg-Debug/aqme2_20220329/20220906-example-end-to-end/End-to-end_Workflows/End-to-end workflow 2, SN2 PES/AQME inputs/CSEARCH/crest_xyz/TS3_crest/TS3_crest.xyz --opt --input constrain1.inp -c 0 --uhf 0 -P 8
          number of atoms            :                    24
          number of electrons        :                    54
          charge                     :                     0
          spin                       :                   0.0

   ID    Z sym.   atoms
    1    6 C      1-10
    2    1 H      11-24
constraining bond 4 6 to    2.3500000 Å, actual value:    5.1860379 Å
constraining bond 1 7 to    2.3500000 Å, actual value:    5.3047030 Å
constraining bond 1 2 to    1.3210000 Å, actual value:    1.3207994 Å
constraining bond 2 3 to    1.4550000 Å, actual value:    1.4550178 Å
constraining bond 3 4 to    1.3200000 Å, actual value:    1.3200981 Å
constraining bond 4 5 to    1.4870000 Å, actual value:    1.4866532 Å
constraining bond 5 1 to    1.4940000 Å, actual value:    1.4936965 Å
constraining bond 6 7 to    1.3300000 Å, actual value:    1.3300976 Å
constraining bond 7 8 to    1.4890000 Å, actual value:    1.4894826 Å
constraining bond 8 9 to    1.5190000 Å, actual value:    1.5191961 Å
constraining bond 9 10 to    1.5160000 Å, actual value:    1.5158560 Å
constraining bond 10 6 to    1.4880000 Å, actual value:    1.4882233 Å
constraining bond 1 11 to    1.0860000 Å, actual value:    1.0855823 Å
constraining bond 2 12 to    1.0820000 Å, actual value:    1.0822129 Å
constraining bond 3 13 to    1.0800000 Å, actual value:    1.0804174 Å
constraining bond 4 14 to    1.0840000 Å, actual value:    1.0840589 Å
constraining bond 5 15 to    1.1090000 Å, actual value:    1.1086546 Å
constraining bond 5 16 to    1.1080000 Å, actual value:    1.1077332 Å
constraining bond 6 17 to    1.0830000 Å, actual value:    1.0830288 Å
constraining bond 7 18 to    1.0840000 Å, actual value:    1.0835006 Å
constraining bond 8 19 to    1.1050000 Å, actual value:    1.1049218 Å
constraining bond 8 20 to    1.1150000 Å, actual value:    1.1154296 Å
constraining bond 9 21 to    1.1080000 Å, actual value:    1.1077518 Å
constraining bond 9 22 to    1.1170000 Å, actual value:    1.1171816 Å
constraining bond 10 23 to    1.1140000 Å, actual value:    1.1142412 Å
constraining bond 10 24 to    1.1060000 Å, actual value:    1.1058907 Å

          :  Hamiltonian                  GFN2-xTB          :
 * total energy  :     1.4837544 Eh     change       -0.4248157E-09 Eh
 * total energy  :    -7.3666374 Eh     change       -0.8850392E+01 Eh
 * total energy  :   -14.2060456 Eh     change       -0.6839408E+01 Eh
 * total energy  :   -19.1098480 Eh     change       -0.4903802E+01 Eh
 * total energy  :   -22.3500981 Eh     change       -0.3240250E+01 Eh
 * total energy  :   -24.4542721 Eh     change       -0.2104174E+01 Eh
 * total energy  :   -25.8864894 Eh     change       -0.1432217E+01 Eh
 * total energy  :   -26.8389443 Eh     change       -0.9524550E+00 Eh
 * total energy  :   -27.4148314 Eh     change       -0.5758871E+00 Eh
 * total energy  :   -27.7225186 Eh     change       -0.3076872E+00 Eh
 * total energy  :   -28.4547128 Eh     change        0.2935366E-05 Eh
 * total energy  :   -28.4547483 Eh     change       -0.3547143E-04 Eh
 * total energy  :   -28.4547551 Eh     change       -0.6801147E-05 Eh
 * total energy  :   -28.4547529 Eh     change        0.2149032E-05 Eh
 * total energy  :   -28.4547659 Eh     change       -0.1293635E-04 Eh
 * total energy  :   -28.4547677 Eh     change       -0.1829028E-05 Eh
 * total energy  :   -28.4547642 Eh     change        0.3439990E-05 Eh
 * total energy  :   -28.4547686 Eh     change       -0.4342738E-05 Eh
 * total energy  :   -28.4547702 Eh     change       -0.1644160E-05 Eh
   *** GEOMETRY OPTIMIZATION CONVERGED AFTER 68 ITERATIONS ***

 final structure:
================
24
 xtb: 6.3.3 (7355c4f)
C         0.12594406019251    1.21798731473856    1.28123714654681
C         1.27487537316767    0.83476195570204    0.72383341279929
C         1.29176989924738   -0.61146216252895    0.65409676899948
C         0.15274977842844   -1.07347616789671    1.16935242336891
C        -0.81117948644628    0.05419443152945    1.29561916163712
C         0.74751522827614   -0.69730434573098    3.41692291152638
C         0.73740528452716    0.63750481597294    3.48030301069411
C        -0.41553351177192    1.14283775879731    4.28245149934299
C        -1.20508990136123   -0.10384214677852    4.66287259712001
C        -0.39813684160506   -1.29346041813880    4.16396590561765
H        -0.20774578300185    2.23896123257593    1.42541057290721
H         2.12163798012064    1.45838702477457    0.47591458600865
H         2.15168388410666   -1.18712375562091    0.34861314800413
H        -0.15306521467621   -2.11073227871358    1.21396656167039
H        -1.51595109194893    0.00520433887166    2.14225412289251
H        -1.42421494452509    0.09311404508846    0.37637241391686
H         1.60145541050248   -1.30897616168670    3.16184317684458
H         1.58252278788360    1.28370158451426    3.28467131832498
H        -0.03194146941020    1.66497286557704    5.17474467811714
H        -1.03663573442480    1.88310358150442    3.73633720255897
H        -2.21568483391194   -0.08875707624605    4.21803371908286
H        -1.35772566137732   -0.15792087197811    5.76214433503223
H        -1.00729600859327   -1.98560726124234    3.54752549399922
H        -0.00735920339740   -1.89606630308527    5.00151483298866

          :  Hamiltonian                  GFN2-xTB          :
         :: total energy             -28.454770227638 Eh    ::
         :: gradient norm              0.000725252884 Eh/a0 ::
         :: HOMO-LUMO gap              3.878087670342 eV    ::
         :: SCC energy               -28.947567946208 Eh    ::
         :: -> dispersion             -0.022494899511 Eh    ::
         :: repulsion energy           0.491349242444 Eh    ::

    * Orbital Energies and Occupations

         #    Occupation            Energy/Eh            Energy/eV
      -------------------------------------------------------------
         1        2.0000           -0.6394879             -17.4014
       ...           ...                  ...                  ...
        15        2.0000           -0.4705279             -12.8037
        16        2.0000           -0.4508057             -12.2670
        17        2.0000           -0.4506203             -12.2620
        18        2.0000           -0.4459649             -12.1353
        19        2.0000           -0.4434818             -12.0678
        20        2.0000           -0.4417412             -12.0204
        21        2.0000           -0.4409276             -11.9983
        22        2.0000           -0.4350485             -11.8383
        23        2.0000           -0.4325916             -11.7714
        24        2.0000           -0.4305379             -11.7155
        25        2.0000           -0.4121591             -11.2154
        26        2.0000           -0.3689613             -10.0399
        27        2.0000           -0.3621598              -9.8549 (HOMO)
        28                         -0.2196427              -5.9768 (LUMO)
        29                         -0.1939521              -5.2777
        30                         -0.1241116              -3.3772
        31                          0.0783951               2.1332
        32                          0.0877008               2.3865
        33                          0.1028213               2.7979
        34                          0.1053875               2.8677
        35                          0.1156884               3.1480
        36                          0.1217306               3.3125
        37                          0.1319478               3.5905
        38                          0.1430424               3.8924
       ...                                ...                  ...
        54                          0.7266667              19.7736
      -------------------------------------------------------------
                  HL-Gap            0.1425171 Eh            3.8781 eV

     #   Z          covCN         q      C6AA      α(0)
     1   6 C        3.054    -0.027    28.615     8.773
     2   6 C        3.024    -0.044    29.059     8.842
     3   6 C        3.026    -0.044    29.066     8.843
     4   6 C        3.055    -0.026    28.604     8.771
     5   6 C        3.912    -0.061    21.618     6.609
     6   6 C        2.965    -0.037    28.921     8.821
     7   6 C        2.965    -0.037    28.917     8.820
     8   6 C        3.841    -0.051    21.450     6.589
     9   6 C        3.832    -0.049    21.436     6.587
    10   6 C        3.841    -0.050    21.446     6.588
    11   1 H        0.925     0.024     2.678     2.559
    12   1 H        0.926     0.022     2.710     2.574
    13   1 H        0.926     0.022     2.707     2.573
    14   1 H        0.925     0.024     2.676     2.558
    15   1 H        0.923     0.060     2.202     2.321
    16   1 H        0.922     0.060     2.205     2.322
    17   1 H        0.926     0.025     2.660     2.551
    18   1 H        0.925     0.025     2.663     2.552
    19   1 H        0.923     0.031     2.578     2.511
    20   1 H        0.922     0.030     2.582     2.513
    21   1 H        0.923     0.022     2.703     2.571
    22   1 H        0.921     0.023     2.684     2.562
    23   1 H        0.922     0.030     2.580     2.512
    24   1 H        0.923     0.030     2.580     2.512

Wiberg/Mayer (AO) data.
largest (>0.10) Wiberg bond orders for each atom

     #   Z sym  total        # sym  WBO       # sym  WBO       # sym  WBO
 ---------------------------------------------------------------------------
     1   6 C    3.986 --     2 C    1.692     5 C    1.028    11 H    0.971
                             7 C    0.134     4 C    0.113
     2   6 C    3.988 --     1 C    1.692     3 C    1.206    12 H    0.972
     3   6 C    3.988 --     4 C    1.691     2 C    1.206    13 H    0.973
     4   6 C    3.986 --     3 C    1.691     5 C    1.030    14 H    0.971
                             6 C    0.134     1 C    0.113
     5   6 C    3.996 --     4 C    1.030     1 C    1.028    15 H    0.953
                            16 H    0.921
     6   6 C    3.989 --     7 C    1.744    10 C    1.022    17 H    0.969
                             4 C    0.134
     7   6 C    3.988 --     6 C    1.744     8 C    1.022    18 H    0.969
                             1 C    0.134
     8   6 C    3.998 --     7 C    1.022     9 C    1.003    20 H    0.967
                            19 H    0.965
     9   6 C    3.998 --    10 C    1.004     8 C    1.003    22 H    0.982
                            21 H    0.979
    10   6 C    3.998 --     6 C    1.022     9 C    1.004    23 H    0.967
                            24 H    0.965
    11   1 H    0.999 --     1 C    0.971
    12   1 H    1.000 --     2 C    0.972
    13   1 H    1.000 --     3 C    0.973
    14   1 H    0.999 --     4 C    0.971
    15   1 H    0.996 --     5 C    0.953
    16   1 H    0.996 --     5 C    0.921
    17   1 H    0.999 --     6 C    0.969
    18   1 H    0.999 --     7 C    0.969
    19   1 H    0.999 --     8 C    0.965
    20   1 H    0.999 --     8 C    0.967
    21   1 H    1.000 --     9 C    0.979
    22   1 H    0.999 --     9 C    0.982
    23   1 H    0.999 --    10 C    0.967
    24   1 H    0.999 --    10 C    0.965
 ---------------------------------------------------------------------------

molecular dipole:
                 x           y           z       tot (Debye)
 q only:       -0.342      -0.009       0.062
   full:       -0.367      -0.009       0.069       0.950

           -------------------------------------------------
          | TOTAL ENERGY              -28.454770227638 Eh   |
          | GRADIENT NORM               0.000725252884 Eh/α |
          | HOMO-LUMO GAP               3.878087670342 eV   |
           -------------------------------------------------

 * finished run on 2022/09/06 at 17:48:59.446
