   * xtb version 6.3.3 (7355c4f) compiled by 'conda@14e9545d6667' on 2020-09-17
          program call               : xtb /home/svss/Project-DBcg-Debug/aqme2_20220329/20220906-example-end-to-end/End-to-end_Workflows/End-to-end workflow 2, SN2 PES/AQME inputs/CSEARCH/crest_xyz/TS3_crest/TS3_crest_xtb1.xyz --opt --input constrain2.inp -c 0 --uhf 0 -P 8
          number of atoms            :                    24
          number of electrons        :                    54
          charge                     :                     0
          spin                       :                   0.0

   ID    Z sym.   atoms
    1    6 C      1-10
    2    1 H      11-24
constraining bond 4 6 to    2.3500000 Å, actual value:    5.1860379 Å
constraining bond 1 7 to    2.3500000 Å, actual value:    5.3047030 Å

          :  Hamiltonian                  GFN2-xTB          :
 * total energy  :   -28.4559637 Eh     change       -0.1776357E-13 Eh
 * total energy  :   -28.4588320 Eh     change       -0.2868314E-02 Eh
 * total energy  :   -28.4593283 Eh     change       -0.4962635E-03 Eh
 * total energy  :   -28.4593538 Eh     change       -0.2551629E-04 Eh
 * total energy  :   -28.4593618 Eh     change       -0.8054601E-05 Eh
 * total energy  :   -28.4593633 Eh     change       -0.1509338E-05 Eh
   *** GEOMETRY OPTIMIZATION CONVERGED AFTER 6 ITERATIONS ***

 final structure:
================
24
 xtb: 6.3.3 (7355c4f)
C         0.11871040683769    1.22041868822861    1.28555741772677
C         1.28616283883985    0.81927727785541    0.71241623172182
C         1.30149040111812   -0.59719793494366    0.64403353699723
C         0.14351470041582   -1.07687488237502    1.17445292654036
C        -0.81937826491775    0.05830018639896    1.29696625703199
C         0.75346134003286   -0.70289631041304    3.41608297888689
C         0.74132369652277    0.64496784770864    3.48055999642108
C        -0.42057943184773    1.15502731543779    4.28889373335698
C        -1.22072827180149   -0.10507206689586    4.67275997743288
C        -0.39918766096792   -1.30839728201348    4.17006332293224
H        -0.20307127631135    2.23882805903459    1.41660220876070
H         2.12038650434780    1.45095645236121    0.46169758805066
H         2.14896769813542   -1.18348516916242    0.33442261430174
H        -0.15612300290630   -2.10984151318292    1.20626170248461
H        -1.51167458978082    0.01069480244289    2.12805535828211
H        -1.41892208086687    0.09617869460293    0.37823707366784
H         1.60813953277443   -1.30615655999681    3.17118762267158
H         1.58494648844539    1.28387348732586    3.29477561846272
H        -0.03810348946221    1.66361004260870    5.17839591381132
H        -1.03313762264865    1.87872775932747    3.74893992997295
H        -2.21251659366612   -0.09175212582564    4.21964161938281
H        -1.36626331234770   -0.15834912482413    5.75139773624490
H        -0.99949342433341   -1.98680875885374    3.56183319314751
H        -0.00792458561065   -1.89402688484662    5.00676644171144

          :  Hamiltonian                  GFN2-xTB          :
         :: total energy             -28.459363332989 Eh    ::
         :: gradient norm              0.000419403331 Eh/a0 ::
         :: HOMO-LUMO gap              3.721750333366 eV    ::
         :: SCC energy               -28.948988357529 Eh    ::
         :: -> dispersion             -0.022402570765 Eh    ::
         :: repulsion energy           0.489430742055 Eh    ::

    * Orbital Energies and Occupations

         #    Occupation            Energy/Eh            Energy/eV
      -------------------------------------------------------------
         1        2.0000           -0.6371665             -17.3382
       ...           ...                  ...                  ...
        15        2.0000           -0.4705636             -12.8047
        16        2.0000           -0.4500640             -12.2469
        17        2.0000           -0.4480890             -12.1931
        18        2.0000           -0.4455531             -12.1241
        19        2.0000           -0.4422419             -12.0340
        20        2.0000           -0.4403780             -11.9833
        21        2.0000           -0.4397059             -11.9650
        22        2.0000           -0.4359606             -11.8631
        23        2.0000           -0.4346893             -11.8285
        24        2.0000           -0.4298367             -11.6965
        25        2.0000           -0.4125556             -11.2262
        26        2.0000           -0.3641320              -9.9085
        27        2.0000           -0.3616743              -9.8417 (HOMO)
        28                         -0.2249024              -6.1199 (LUMO)
        29                         -0.1947193              -5.2986
        30                         -0.1262982              -3.4367
        31                          0.0726670               1.9774
        32                          0.0906392               2.4664
        33                          0.1132387               3.0814
        34                          0.1167015               3.1756
        35                          0.1216322               3.3098
        36                          0.1238549               3.3703
        37                          0.1427936               3.8856
        38                          0.1435653               3.9066
       ...                                ...                  ...
        54                          0.6827342              18.5781
      -------------------------------------------------------------
                  HL-Gap            0.1367718 Eh            3.7218 eV

     #   Z          covCN         q      C6AA      α(0)
     1   6 C        3.050    -0.031    28.726     8.790
     2   6 C        3.015    -0.044    29.063     8.843
     3   6 C        3.015    -0.044    29.063     8.843
     4   6 C        3.050    -0.031    28.727     8.790
     5   6 C        3.898    -0.063    21.647     6.614
     6   6 C        2.953    -0.039    28.957     8.826
     7   6 C        2.953    -0.038    28.956     8.826
     8   6 C        3.831    -0.054    21.528     6.602
     9   6 C        3.823    -0.055    21.544     6.605
    10   6 C        3.831    -0.054    21.528     6.602
    11   1 H        0.926     0.025     2.659     2.550
    12   1 H        0.926     0.022     2.709     2.574
    13   1 H        0.926     0.022     2.710     2.574
    14   1 H        0.926     0.025     2.659     2.550
    15   1 H        0.925     0.063     2.161     2.299
    16   1 H        0.924     0.062     2.172     2.305
    17   1 H        0.926     0.026     2.637     2.540
    18   1 H        0.926     0.026     2.638     2.540
    19   1 H        0.924     0.032     2.564     2.504
    20   1 H        0.924     0.034     2.532     2.488
    21   1 H        0.924     0.024     2.675     2.558
    22   1 H        0.925     0.027     2.629     2.536
    23   1 H        0.924     0.034     2.532     2.488
    24   1 H        0.924     0.032     2.564     2.504

Wiberg/Mayer (AO) data.
largest (>0.10) Wiberg bond orders for each atom

     #   Z sym  total        # sym  WBO       # sym  WBO       # sym  WBO
 ---------------------------------------------------------------------------
     1   6 C    3.985 --     2 C    1.636     5 C    1.033    11 H    0.973
                             7 C    0.158     4 C    0.133
     2   6 C    3.988 --     1 C    1.636     3 C    1.263    12 H    0.973
     3   6 C    3.988 --     4 C    1.636     2 C    1.263    13 H    0.973
     4   6 C    3.985 --     3 C    1.636     5 C    1.033    14 H    0.973
                             6 C    0.158     1 C    0.133
     5   6 C    3.997 --     1 C    1.033     4 C    1.033    15 H    0.954
                            16 H    0.918
     6   6 C    3.988 --     7 C    1.720    10 C    1.019    17 H    0.970
                             4 C    0.158
     7   6 C    3.988 --     6 C    1.720     8 C    1.019    18 H    0.970
                             1 C    0.158
     8   6 C    3.998 --     7 C    1.019     9 C    1.002    20 H    0.970
                            19 H    0.967
     9   6 C    3.998 --     8 C    1.002    10 C    1.002    22 H    0.984
                            21 H    0.981
    10   6 C    3.998 --     6 C    1.019     9 C    1.002    23 H    0.970
                            24 H    0.967
    11   1 H    0.999 --     1 C    0.973
    12   1 H    1.000 --     2 C    0.973
    13   1 H    1.000 --     3 C    0.973
    14   1 H    0.999 --     4 C    0.973
    15   1 H    0.996 --     5 C    0.954
    16   1 H    0.996 --     5 C    0.918
    17   1 H    0.999 --     6 C    0.970
    18   1 H    0.999 --     7 C    0.970
    19   1 H    0.999 --     8 C    0.967
    20   1 H    0.999 --     8 C    0.970
    21   1 H    0.999 --     9 C    0.981
    22   1 H    0.999 --     9 C    0.984
    23   1 H    0.999 --    10 C    0.970
    24   1 H    0.999 --    10 C    0.967
 ---------------------------------------------------------------------------

molecular dipole:
                 x           y           z       tot (Debye)
 q only:       -0.363      -0.007       0.069
   full:       -0.383      -0.007       0.069       0.991

           -------------------------------------------------
          | TOTAL ENERGY              -28.459363332989 Eh   |
          | GRADIENT NORM               0.000419403331 Eh/α |
          | HOMO-LUMO GAP               3.721750333366 eV   |
           -------------------------------------------------

 * finished run on 2022/09/06 at 17:49:01.337
