 Gaussian 16, Revision C.01,
 Gaussian 16:  AS64L-G16RevC.01  3-Jul-2019

 ----------------------------
 # B3LYP/6-31+G(d,p) opt freq
 ----------------------------

 -----------------------
 Strychnine_rdkit_conf_1
 -----------------------
 Symbolic Z-matrix:
 Charge =  0 Multiplicity = 1

 SCF Done:  E(RB3LYP) =  -1073.46574316     A.U. after   16 cycles
 SCF Done:  E(RB3LYP) =  -1073.47283548     A.U. after   13 cycles
 SCF Done:  E(RB3LYP) =  -1073.47338952     A.U. after   12 cycles
 SCF Done:  E(RB3LYP) =  -1073.47351922     A.U. after   12 cycles
 SCF Done:  E(RB3LYP) =  -1073.47356136     A.U. after   11 cycles
 SCF Done:  E(RB3LYP) =  -1073.47359488     A.U. after   12 cycles
 SCF Done:  E(RB3LYP) =  -1073.47360858     A.U. after   13 cycles
 SCF Done:  E(RB3LYP) =  -1073.47361177     A.U. after   11 cycles
 SCF Done:  E(RB3LYP) =  -1073.47361246     A.U. after   10 cycles
 Optimization completed.
    -- Stationary point found.
 Normal termination of Gaussian 16 at Tue Sep  6 12:36:19 2022.

 ----------------------------------------------------------------------
 #N Geom=AllCheck Guess=TCheck SCRF=Check GenChk RB3LYP/6-31+G(d,p) Fre
 q
 ----------------------------------------------------------------------

 Structure from the checkpoint file:  "/tmp/Gau-4075097.chk"
 -----------------------
 Strychnine_rdkit_conf_1
 -----------------------
 Charge =  0 Multiplicity = 1

                         Standard orientation:
 ---------------------------------------------------------------------
 Center     Atomic      Atomic             Coordinates (Angstroms)
 Number     Number       Type             X           Y           Z
 ---------------------------------------------------------------------
      1          6           0        0.388929   -1.842547    1.735569
      2          6           0       -1.076906   -2.283961    1.718658
      3          7           0       -1.356134   -2.619233    0.308087
      4          6           0       -2.713709   -2.257889   -0.135051
      5          6           0       -2.821257   -0.778419   -0.445325
      6          6           0       -3.732174    0.027429    0.117211
      7          6           0       -3.734670    1.524579   -0.074701
      8          8           0       -2.556974    2.143968    0.459218
      9          6           0       -1.422712    2.198141   -0.408470
     10          6           0       -0.379091    3.059328    0.354762
     11          6           0        1.065109    2.564048    0.336081
     12          8           0        2.016594    3.330708    0.214715
     13          7           0        1.208418    1.200536    0.491907
     14          6           0        0.004543    0.330808    0.424442
     15          6           0       -0.815313    0.828282   -0.781697
     16          6           0       -1.736023   -0.253013   -1.386191
     17          6           0       -0.816374   -1.414609   -1.809432
     18          6           0       -0.258919   -2.082873   -0.550120
     19          6           0        0.565260   -1.129899    0.368909
     20          6           0        2.020778   -0.905548    0.016208
     21          6           0        3.000500   -1.831768   -0.330229
     22          6           0        4.316924   -1.396252   -0.533989
     23          6           0        4.640239   -0.044979   -0.376885
     24          6           0        3.670154    0.900505   -0.022286
     25          6           0        2.360996    0.448882    0.163886
     26          1           0        0.633989   -1.195182    2.583223
     27          1           0        1.055910   -2.710766    1.774221
     28          1           0       -1.725803   -1.465261    2.070441
     29          1           0       -1.259109   -3.148369    2.368174
     30          1           0       -3.419886   -2.544582    0.649572
     31          1           0       -2.970253   -2.858766   -1.017138
     32          1           0       -4.476774   -0.391790    0.792387
     33          1           0       -4.569572    1.978616    0.465204
     34          1           0       -3.841127    1.794914   -1.138176
     35          1           0       -1.723249    2.708633   -1.337235
     36          1           0       -0.363313    4.089479   -0.003781
     37          1           0       -0.707774    3.089123    1.400955
     38          1           0       -0.591853    0.466023    1.332648
     39          1           0       -0.087981    1.055401   -1.575416
     40          1           0       -2.219541    0.176455   -2.276157
     41          1           0       -1.355573   -2.150004   -2.415401
     42          1           0        0.010009   -1.045999   -2.427063
     43          1           0        0.397904   -2.912960   -0.843755
     44          1           0        2.752671   -2.884267   -0.439677
     45          1           0        5.086749   -2.111251   -0.808147
     46          1           0        5.663633    0.284502   -0.531663
     47          1           0        3.910291    1.948043    0.097270
 ---------------------------------------------------------------------

 SCF Done:  E(RB3LYP) =  -1073.47361246     A.U. after    2 cycles

 The electronic state is 1-A.
 Alpha  occ. eigenvalues --  -19.16875 -19.12775 -14.38268 -14.33624 -10.29725
 Alpha  occ. eigenvalues --  -10.26023 -10.24881 -10.24205 -10.23571 -10.22986
 Alpha  occ. eigenvalues --  -10.22475 -10.22105 -10.21703 -10.21647 -10.21223
 Alpha  occ. eigenvalues --  -10.20855 -10.20248 -10.20171 -10.20155 -10.20023
 Alpha  occ. eigenvalues --  -10.19768 -10.19632 -10.19625 -10.19452 -10.19148
 Alpha  occ. eigenvalues --   -1.04886  -1.04373  -0.97257  -0.94457  -0.86250
 Alpha  occ. eigenvalues --   -0.84556  -0.83136  -0.81327  -0.78087  -0.75761
 Alpha  occ. eigenvalues --   -0.75304  -0.74193  -0.72388  -0.71193  -0.67343
 Alpha  occ. eigenvalues --   -0.65398  -0.64294  -0.63789  -0.61098  -0.59140
 Alpha  occ. eigenvalues --   -0.58197  -0.56609  -0.55715  -0.52654  -0.52106
 Alpha  occ. eigenvalues --   -0.51402  -0.50377  -0.49593  -0.49401  -0.48009
 Alpha  occ. eigenvalues --   -0.47292  -0.46936  -0.46358  -0.45556  -0.45322
 Alpha  occ. eigenvalues --   -0.44514  -0.43504  -0.42212  -0.42011  -0.41106
 Alpha  occ. eigenvalues --   -0.40772  -0.40448  -0.39937  -0.39588  -0.38774
 Alpha  occ. eigenvalues --   -0.38093  -0.37703  -0.37241  -0.36991  -0.36428
 Alpha  occ. eigenvalues --   -0.35957  -0.35015  -0.34238  -0.33811  -0.33680
 Alpha  occ. eigenvalues --   -0.32740  -0.32157  -0.30012  -0.27581  -0.25932
 Alpha  occ. eigenvalues --   -0.25725  -0.25359  -0.22174  -0.21398
 Alpha virt. eigenvalues --   -0.02494  -0.02179  -0.01778  -0.00666  -0.00009
 Alpha virt. eigenvalues --    0.00388   0.00788   0.01704   0.01925   0.02518
 Alpha virt. eigenvalues --    0.02589   0.02682   0.02908   0.03958   0.04210

 Mulliken charges:
               1
     1  C   -0.183398
     2  C   -0.183339
     3  N   -0.049059
     4  C   -0.350075
     5  C   -0.060190
     6  C    0.331378
     7  C   -0.143055
     8  O   -0.270246
     9  C   -0.421715
    10  C   -0.227715
    11  C    0.542474
    12  O   -0.490441
    13  N    0.075369
    14  C   -0.453340
    15  C   -0.137168
    16  C    0.606198
    17  C   -0.652438
    18  C    0.122286
    19  C   -0.258946
    20  C    0.002974
    21  C   -0.349433
    22  C   -0.155954
    23  C   -0.278849
    24  C   -0.254425
    25  C    0.059872
    26  H    0.155584
    27  H    0.157656
    28  H    0.139784
    29  H    0.132484
    30  H    0.134124
    31  H    0.146302
    32  H    0.122067
    33  H    0.134118
    34  H    0.126989
    35  H    0.124354
    36  H    0.181201
    37  H    0.197390
    38  H    0.173678
    39  H    0.145526
    40  H    0.145290
    41  H    0.147930
    42  H    0.149575
    43  H    0.125081
    44  H    0.118486
    45  H    0.123601
    46  H    0.127404
    47  H    0.170614
 Sum of Mulliken charges =  -0.00000

 Dipole moment (field-independent basis, Debye):
    X=             -3.1706    Y=             -2.8291    Z=             -1.1334  Tot=              4.3978
 Quadrupole moment (field-independent basis, Debye-Ang):
   XX=           -145.4935   YY=           -159.8023   ZZ=           -145.5090
   XY=            -10.1710   XZ=              0.1689   YZ=             -2.4582

  Exact polarizability:     300.259      -8.542     260.194     -13.265       3.360     179.162
 Approx polarizability:     411.992     -11.241     411.991     -31.235      15.732     297.047

                      1                      2                      3
                      A                      A                      A
 Frequencies --     53.5480                83.1667                95.1337
 Red. masses --      4.8808                 4.2135                 3.7892
 Frc consts  --      0.0082                 0.0172                 0.0202
 IR Inten    --      0.7340                 1.6798                 3.6495

                      4                      5                      6
                      A                      A                      A
 Frequencies --    114.5712               134.4149               170.3255
 Red. masses --      5.4119                 3.7203                 4.2539
 Frc consts  --      0.0419                 0.0396                 0.0727
 IR Inten    --      1.1980                 0.2692                 0.9915

                      7                      8                      9
                      A                      A                      A
 Frequencies --    207.4435               230.6830               252.9888
 Red. masses --      3.8013                 2.9778                 3.7849
 Frc consts  --      0.0964                 0.0934                 0.1427
 IR Inten    --      0.3247                 2.7768                 1.0541

                     10                     11                     12
                      A                      A                      A
 Frequencies --    257.7954               281.2809               289.8609
 Red. masses --      3.9164                 3.8305                 4.4834
 Frc consts  --      0.1534                 0.1786                 0.2219
 IR Inten    --      3.4637                 0.5235                 2.2111

                     13                     14                     15
                      A                      A                      A
 Frequencies --    321.0756               337.7668               365.3024
 Red. masses --      3.2564                 3.7303                 3.7317
 Frc consts  --      0.1978                 0.2507                 0.2934
 IR Inten    --      2.5321                 4.1124                 4.2790

                     16                     17                     18
                      A                      A                      A
 Frequencies --    371.9733               391.7426               406.6286
 Red. masses --      4.1975                 4.5368                 3.3504
 Frc consts  --      0.3422                 0.4102                 0.3264
 IR Inten    --      9.2452                 2.5086                 1.6395

                     19                     20                     21
                      A                      A                      A
 Frequencies --    431.8488               442.2580               452.1188
 Red. masses --      2.9840                 2.6343                 3.0889
 Frc consts  --      0.3279                 0.3036                 0.3720
 IR Inten    --      4.3360                 0.0580                 0.1727

                     22                     23                     24
                      A                      A                      A
 Frequencies --    467.4861               491.7439               510.3832
 Red. masses --      4.1839                 4.6759                 3.8781
 Frc consts  --      0.5387                 0.6662                 0.5952
 IR Inten    --      9.0062                 1.4101                 2.5682

                     25                     26                     27
                      A                      A                      A
 Frequencies --    526.7640               548.0561               566.0178
 Red. masses --      3.8518                 3.6207                 4.0677
 Frc consts  --      0.6297                 0.6408                 0.7678
 IR Inten    --     13.7076                10.0866                 5.0637

                     28                     29                     30
                      A                      A                      A
 Frequencies --    574.5419               582.1045               631.4468
 Red. masses --      3.8422                 3.4505                 5.3947
 Frc consts  --      0.7473                 0.6889                 1.2673
 IR Inten    --      1.7203                 0.1284                 6.9374

                     31                     32                     33
                      A                      A                      A
 Frequencies --    645.8338               653.8354               678.0926
 Red. masses --      3.4786                 3.8679                 3.9980
 Frc consts  --      0.8549                 0.9742                 1.0831
 IR Inten    --      4.5225                 0.7541                 2.2025

                     34                     35                     36
                      A                      A                      A
 Frequencies --    686.5394               690.7505               732.8457
 Red. masses --      4.7363                 4.1345                 4.8956
 Frc consts  --      1.3153                 1.1623                 1.5491
 IR Inten    --      4.6323                 4.0770                 3.2483

                     37                     38                     39
                      A                      A                      A
 Frequencies --    759.8944               768.1672               775.4971
 Red. masses --      2.9725                 1.4987                 2.9597
 Frc consts  --      1.0113                 0.5210                 1.0487
 IR Inten    --      7.2440                56.7095                 1.8223

                     40                     41                     42
                      A                      A                      A
 Frequencies --    783.4480               814.3062               830.7948
 Red. masses --      3.7324                 3.1782                 2.6196
 Frc consts  --      1.3498                 1.2417                 1.0653
 IR Inten    --     12.1931                 2.2709                 5.2208

                     43                     44                     45
                      A                      A                      A
 Frequencies --    845.2272               864.5278               886.6307
 Red. masses --      1.7167                 1.9612                 1.3912
 Frc consts  --      0.7226                 0.8636                 0.6444
 IR Inten    --      8.0179                 9.3145                 3.2796

                     46                     47                     48
                      A                      A                      A
 Frequencies --    902.3791               924.7217               931.3103
 Red. masses --      2.8282                 4.3370                 2.6463
 Frc consts  --      1.3569                 2.1851                 1.3523
 IR Inten    --      3.3099                 4.6743                 5.7303

                     49                     50                     51
                      A                      A                      A
 Frequencies --    948.1359               952.7413               956.8403
 Red. masses --      2.6056                 1.9497                 1.7532
 Frc consts  --      1.3801                 1.0427                 0.9457
 IR Inten    --      1.0242                 0.2148                 6.8537

                     52                     53                     54
                      A                      A                      A
 Frequencies --    960.9887               990.2865               993.2699
 Red. masses --      2.5649                 2.7503                 1.2798
 Frc consts  --      1.3956                 1.5891                 0.7439
 IR Inten    --      3.8382                 3.1890                 0.5342

                     55                     56                     57
                      A                      A                      A
 Frequencies --    999.0962              1003.3458              1022.9456
 Red. masses --      2.2373                 2.8340                 2.8558
 Frc consts  --      1.3158                 1.6809                 1.7607
 IR Inten    --      7.6216                14.8195                 1.9842

                     58                     59                     60
                      A                      A                      A
 Frequencies --   1036.3008              1039.8189              1050.6788
 Red. masses --      2.0107                 2.9642                 2.0972
 Frc consts  --      1.2722                 1.8883                 1.3640
 IR Inten    --      3.2720                 8.2446                 9.4575

                     61                     62                     63
                      A                      A                      A
 Frequencies --   1064.1247              1071.0925              1090.7120
 Red. masses --      2.8881                 2.8199                 2.4396
 Frc consts  --      1.9268                 1.9060                 1.7100
 IR Inten    --     30.0243                20.0649                 8.9004

                     64                     65                     66
                      A                      A                      A
 Frequencies --   1094.8947              1109.8044              1113.0691
 Red. masses --      2.3630                 2.4835                 2.3595
 Frc consts  --      1.6690                 1.8022                 1.7223
 IR Inten    --     11.6191                 4.5849                17.8578

                     67                     68                     69
                      A                      A                      A
 Frequencies --   1115.2543              1127.2989              1134.9050
 Red. masses --      2.9110                 2.4167                 3.3054
 Frc consts  --      2.1333                 1.8094                 2.5084
 IR Inten    --     32.5379                28.3146                44.7943

                     70                     71                     72
                      A                      A                      A
 Frequencies --   1152.0527              1166.6761              1183.4427
 Red. masses --      3.1111                 2.2947                 1.1601
 Frc consts  --      2.4328                 1.8403                 0.9572
 IR Inten    --      6.4682                22.5544                 0.2261

                     73                     74                     75
                      A                      A                      A
 Frequencies --   1188.6373              1206.0807              1212.4562
 Red. masses --      1.7844                 1.8350                 1.4660
 Frc consts  --      1.4854                 1.5727                 1.2697
 IR Inten    --     23.6223                 9.7994                 4.6146

                     76                     77                     78
                      A                      A                      A
 Frequencies --   1226.0533              1230.6180              1245.2781
 Red. masses --      1.6229                 1.4488                 1.5615
 Frc consts  --      1.4373                 1.2927                 1.4267
 IR Inten    --      7.0508                 3.5283                 3.4931

                     79                     80                     81
                      A                      A                      A
 Frequencies --   1256.2883              1270.7601              1276.1512
 Red. masses --      1.7438                 2.1312                 1.4064
 Frc consts  --      1.6215                 2.0277                 1.3495
 IR Inten    --     13.1340                12.6786                 6.3142

                     82                     83                     84
                      A                      A                      A
 Frequencies --   1286.2873              1299.2753              1309.3528
 Red. masses --      1.1800                 1.4639                 1.6155
 Frc consts  --      1.1503                 1.4560                 1.6318
 IR Inten    --     13.0671                12.3342                19.8050

                     85                     86                     87
                      A                      A                      A
 Frequencies --   1318.1317              1320.1890              1323.6430
 Red. masses --      1.5304                 1.3452                 1.4668
 Frc consts  --      1.5666                 1.3814                 1.5141
 IR Inten    --     21.1074                 2.8734                19.4935

                     88                     89                     90
                      A                      A                      A
 Frequencies --   1327.4721              1339.5177              1343.3402
 Red. masses --      1.3723                 1.3806                 1.3814
 Frc consts  --      1.4248                 1.4596                 1.4688
 IR Inten    --     13.2009                 5.6512                 9.1773

                     91                     92                     93
                      A                      A                      A
 Frequencies --   1352.6456              1359.9140              1360.7017
 Red. masses --      2.2781                 1.4428                 1.5234
 Frc consts  --      2.4558                 1.5721                 1.6619
 IR Inten    --     86.8478                 5.3195                 3.7377

                     94                     95                     96
                      A                      A                      A
 Frequencies --   1366.1682              1382.3846              1384.8910
 Red. masses --      2.3608                 1.5448                 1.3471
 Frc consts  --      2.5961                 1.7394                 1.5222
 IR Inten    --      3.8348                20.7410                 3.7606

                     97                     98                     99
                      A                      A                      A
 Frequencies --   1389.6255              1394.1258              1409.4430
 Red. masses --      1.5166                 1.4622                 1.3502
 Frc consts  --      1.7255                 1.6744                 1.5804
 IR Inten    --      4.6676                 3.6844                20.1293

                    100                    101                    102
                      A                      A                      A
 Frequencies --   1414.9280              1420.8531              1467.3306
 Red. masses --      1.5126                 2.5785                 1.0790
 Frc consts  --      1.7842                 3.0671                 1.3688
 IR Inten    --     40.0592               172.8725                 6.2241

                    103                    104                    105
                      A                      A                      A
 Frequencies --   1489.1946              1494.0949              1495.1614
 Red. masses --      1.0890                 2.5148                 1.0910
 Frc consts  --      1.4229                 3.3076                 1.4370
 IR Inten    --     11.2209                45.9811                 6.2492

                    106                    107                    108
                      A                      A                      A
 Frequencies --   1497.0302              1514.1332              1516.0559
 Red. masses --      1.1056                 2.5408                 1.1176
 Frc consts  --      1.4598                 3.4319                 1.5134
 IR Inten    --      3.2044               102.3081                14.1042

                    109                    110                    111
                      A                      A                      A
 Frequencies --   1531.2835              1636.0345              1644.1010
 Red. masses --      1.0984                 6.8071                 6.4527
 Frc consts  --      1.5175                10.7349                10.2766
 IR Inten    --      0.4047                 0.2940                28.0557

                    112                    113                    114
                      A                      A                      A
 Frequencies --   1722.4258              1737.0047              2977.3828
 Red. masses --      7.9569                11.3164                 1.0713
 Frc consts  --     13.9084                20.1168                 5.5956
 IR Inten    --     10.3073               383.6358                37.0675

                    115                    116                    117
                      A                      A                      A
 Frequencies --   2980.5918              2985.8686              3002.6525
 Red. masses --      1.0754                 1.0797                 1.0833
 Frc consts  --      5.6290                 5.6716                 5.7547
 IR Inten    --     12.3004                82.0773                 9.9948

                    118                    119                    120
                      A                      A                      A
 Frequencies --   3011.0573              3011.6998              3025.7112
 Red. masses --      1.0845                 1.0844                 1.0691
 Frc consts  --      5.7931                 5.7952                 5.7669
 IR Inten    --     38.1987                45.4838                34.5728

                    121                    122                    123
                      A                      A                      A
 Frequencies --   3047.8382              3058.7850              3059.0803
 Red. masses --      1.0844                 1.0679                 1.0625
 Frc consts  --      5.9348                 5.8869                 5.8582
 IR Inten    --     32.9171                 2.9148                50.1146

                    124                    125                    126
                      A                      A                      A
 Frequencies --   3062.3518              3066.6345              3092.5801
 Red. masses --      1.0685                 1.0860                 1.1018
 Frc consts  --      5.9041                 6.0173                 6.2085
 IR Inten    --     43.5024                13.1286                42.5546

                    127                    128                    129
                      A                      A                      A
 Frequencies --   3098.1973              3102.9712              3109.2391
 Red. masses --      1.0982                 1.0923                 1.1052
 Frc consts  --      6.2108                 6.1966                 6.2948
 IR Inten    --     11.2628                32.8232                17.1396

                    130                    131                    132
                      A                      A                      A
 Frequencies --   3141.5358              3155.5408              3177.5345
 Red. masses --      1.0964                 1.0905                 1.0866
 Frc consts  --      6.3751                 6.3979                 6.4641
 IR Inten    --      8.9978                26.4418                 2.7188

                    133                    134                    135
                      A                      A                      A
 Frequencies --   3188.2166              3203.8062              3256.4506
 Red. masses --      1.0901                 1.0960                 1.0931
 Frc consts  --      6.5282                 6.6284                 6.8294
 IR Inten    --     14.2182                24.9559                 1.7268

 - Thermochemistry -
 -------------------
 Temperature   298.150 Kelvin.  Pressure   1.00000 Atm.
 Atom     1 has atomic number  6 and mass  12.00000

 Molecular mass:   334.16813 amu.
 Principal axes and moments of inertia in atomic units:
                           1         2         3
     Eigenvalues --  4767.495527540.54020**********
           X            0.99990  -0.01370  -0.00164
           Y            0.01369   0.99988  -0.00675
           Z            0.00174   0.00673   0.99998
 This molecule is an asymmetric top.
 Rotational symmetry number  1.
 Warning -- assumption of classical behavior for rotation
           may cause significant error
 Rotational temperatures (Kelvin)      0.01817     0.01149     0.00808
 Rotational constants (GHZ):           0.37855     0.23934     0.16836
 Zero-point vibrational energy    1046241.0 (Joules/Mol)
                                  250.05760 (Kcal/Mol)
 Warning -- explicit consideration of  29 degrees of freedom as
           vibrations may cause significant error
 Vibrational temperatures:     77.04   119.66   136.88   164.84   193.39
          (Kelvin)            245.06   298.46   331.90   363.99   370.91
                              404.70   417.05   461.96   485.97   525.59
                              535.19   563.63   585.05   621.33   636.31
                              650.50   672.61   707.51   734.33   757.90
                              788.53   814.37   826.64   837.52   908.51
                              929.21   940.72   975.62   987.78   993.84
                             1054.40  1093.32  1105.22  1115.77  1127.21
                             1171.60  1195.33  1216.09  1243.86  1275.66
                             1298.32  1330.47  1339.95  1364.16  1370.78
                             1376.68  1382.65  1424.80  1429.09  1437.48
                             1443.59  1471.79  1491.01  1496.07  1511.69
                             1531.04  1541.06  1569.29  1575.31  1596.76
                             1601.46  1604.60  1621.93  1632.88  1657.55
                             1678.59  1702.71  1710.18  1735.28  1744.45
                             1764.02  1770.58  1791.68  1807.52  1828.34
                             1836.10  1850.68  1869.37  1883.87  1896.50
                             1899.46  1904.43  1909.94  1927.27  1932.77
                             1946.16  1956.61  1957.75  1965.61  1988.94
                             1992.55  1999.36  2005.84  2027.87  2035.77
                             2044.29  2111.16  2142.62  2149.67  2151.20
                             2153.89  2178.50  2181.27  2203.18  2353.89
                             2365.49  2478.19  2499.16  4283.79  4288.41
                             4296.00  4320.15  4332.24  4333.16  4353.32
                             4385.16  4400.91  4401.33  4406.04  4412.20
                             4449.53  4457.61  4464.48  4473.50  4519.97
                             4540.12  4571.76  4587.13  4609.56  4685.31

 Zero-point correction=                           0.398492 (Hartree/Particle)
 Thermal correction to Energy=                    0.415841
 Thermal correction to Enthalpy=                  0.416785
 Thermal correction to Gibbs Free Energy=         0.355220
 Sum of electronic and zero-point Energies=          -1073.075120
 Sum of electronic and thermal Energies=             -1073.057772
 Sum of electronic and thermal Enthalpies=           -1073.056828
 Sum of electronic and thermal Free Energies=        -1073.118392

                     E (Thermal)             CV                S
                      KCal/Mol        Cal/Mol-Kelvin    Cal/Mol-Kelvin
 Total                  260.944             76.856            129.573
 Electronic               0.000              0.000              0.000
 Translational            0.889              2.981             43.314
 Rotational               0.889              2.981             34.310
 Vibrational            259.166             70.894             51.949
 Vibration     1          0.596              1.976              4.682
 Vibration     2          0.600              1.961              3.815
 Vibration     3          0.603              1.953              3.552
 Vibration     4          0.608              1.937              3.190
 Vibration     5          0.613              1.919              2.882
 Vibration     6          0.625              1.879              2.432
 Vibration     7          0.641              1.829              2.066
 Vibration     8          0.652              1.794              1.874
 Vibration     9          0.664              1.758              1.710
 Vibration    10          0.667              1.750              1.677
 Vibration    11          0.681              1.708              1.526
 Vibration    12          0.686              1.693              1.475
 Vibration    13          0.707              1.633              1.305
 Vibration    14          0.718              1.600              1.223
 Vibration    15          0.739              1.544              1.099
 Vibration    16          0.744              1.530              1.072
 Vibration    17          0.759              1.488              0.994
 Vibration    18          0.771              1.456              0.939
 Vibration    19          0.793              1.401              0.853
 Vibration    20          0.802              1.378              0.820
 Vibration    21          0.811              1.356              0.789
 Vibration    22          0.825              1.322              0.745
 Vibration    23          0.847              1.268              0.679
 Vibration    24          0.866              1.227              0.633
 Vibration    25          0.882              1.191              0.594
 Vibration    26          0.903              1.144              0.548
 Vibration    27          0.922              1.105              0.512
 Vibration    28          0.931              1.086              0.496
 Vibration    29          0.939              1.070              0.481

 Optimization completed.
    -- Stationary point found.
 Normal termination of Gaussian 16 at Tue Sep  6 13:18:37 2022.
