 Gaussian 16, Revision C.01,
 Gaussian 16:  AS64L-G16RevC.01  3-Jul-2019

 ------------------------------------------------------------
 # B3LYP/6-311+G(2d,p) scrf=(solvent=chloroform,smd) nmr=giao
 ------------------------------------------------------------

 --------------------------
 Strychnine_rdkit_conf_1_SP
 --------------------------
 Symbolic Z-matrix:
 Charge =  0 Multiplicity = 1

                         Standard orientation:
 ---------------------------------------------------------------------
 Center     Atomic      Atomic             Coordinates (Angstroms)
 Number     Number       Type             X           Y           Z
 ---------------------------------------------------------------------
      1          6           0        0.388929   -1.842547    1.735569
      2          6           0       -1.076906   -2.283961    1.718658
      3          7           0       -1.356134   -2.619233    0.308087
      4          6           0       -2.713709   -2.257889   -0.135051
      5          6           0       -2.821257   -0.778419   -0.445325
      6          6           0       -3.732174    0.027429    0.117211
      7          6           0       -3.734670    1.524579   -0.074701
      8          8           0       -2.556974    2.143968    0.459218
      9          6           0       -1.422712    2.198141   -0.408470
     10          6           0       -0.379091    3.059328    0.354762
     11          6           0        1.065109    2.564048    0.336081
     12          8           0        2.016594    3.330708    0.214715
     13          7           0        1.208418    1.200536    0.491907
     14          6           0        0.004543    0.330808    0.424442
     15          6           0       -0.815313    0.828282   -0.781697
     16          6           0       -1.736023   -0.253013   -1.386191
     17          6           0       -0.816374   -1.414609   -1.809432
     18          6           0       -0.258919   -2.082873   -0.550120
     19          6           0        0.565260   -1.129899    0.368909
     20          6           0        2.020778   -0.905548    0.016208
     21          6           0        3.000500   -1.831768   -0.330229
     22          6           0        4.316924   -1.396252   -0.533989
     23          6           0        4.640239   -0.044979   -0.376885
     24          6           0        3.670154    0.900505   -0.022286
     25          6           0        2.360996    0.448882    0.163886
     26          1           0        0.633989   -1.195182    2.583223
     27          1           0        1.055910   -2.710766    1.774221
     28          1           0       -1.725803   -1.465261    2.070441
     29          1           0       -1.259109   -3.148369    2.368174
     30          1           0       -3.419886   -2.544582    0.649572
     31          1           0       -2.970253   -2.858766   -1.017138
     32          1           0       -4.476774   -0.391790    0.792387
     33          1           0       -4.569572    1.978616    0.465204
     34          1           0       -3.841127    1.794914   -1.138176
     35          1           0       -1.723249    2.708633   -1.337235
     36          1           0       -0.363313    4.089479   -0.003781
     37          1           0       -0.707774    3.089123    1.400955
     38          1           0       -0.591853    0.466023    1.332648
     39          1           0       -0.087981    1.055401   -1.575416
     40          1           0       -2.219541    0.176455   -2.276157
     41          1           0       -1.355573   -2.150004   -2.415401
     42          1           0        0.010009   -1.045999   -2.427063
     43          1           0        0.397904   -2.912960   -0.843755
     44          1           0        2.752671   -2.884267   -0.439677
     45          1           0        5.086749   -2.111251   -0.808147
     46          1           0        5.663633    0.284502   -0.531663
     47          1           0        3.910291    1.948043    0.097270
 ---------------------------------------------------------------------

 SCF Done:  E(RB3LYP) =  -1073.73524363     A.U. after   14 cycles

      1  C    Isotropic =   135.6273   Anisotropy =    46.0474

      2  C    Isotropic =   129.1366   Anisotropy =    58.4454

      3  N    Isotropic =   197.4644   Anisotropy =    62.9375

      4  C    Isotropic =   126.9888   Anisotropy =    29.6741

      5  C    Isotropic =    26.3244   Anisotropy =   173.9354

      6  C    Isotropic =    48.8154   Anisotropy =   132.2535

      7  C    Isotropic =   114.1301   Anisotropy =    73.0015

      8  O    Isotropic =   249.4269   Anisotropy =   102.6990

      9  C    Isotropic =    98.9693   Anisotropy =    55.2847

     10  C    Isotropic =   135.0468   Anisotropy =    41.2147

     11  C    Isotropic =     4.5701   Anisotropy =   116.3347

     12  O    Isotropic =   -89.3071   Anisotropy =   598.5459

     13  N    Isotropic =    72.2686   Anisotropy =    88.8526

     14  C    Isotropic =   116.2511   Anisotropy =    40.9495

     15  C    Isotropic =   128.8266   Anisotropy =    19.1701

     16  C    Isotropic =   144.5030   Anisotropy =    13.2014

     17  C    Isotropic =   152.2245   Anisotropy =    15.1772

     18  C    Isotropic =   115.6365   Anisotropy =    39.4317

     19  C    Isotropic =   123.1797   Anisotropy =    27.2637

     20  C    Isotropic =    40.1441   Anisotropy =   153.2579

     21  C    Isotropic =    54.1853   Anisotropy =   180.5581

     22  C    Isotropic =    53.9706   Anisotropy =   176.9497

     23  C    Isotropic =    48.9523   Anisotropy =   183.8945

     24  C    Isotropic =    61.4962   Anisotropy =   163.9029

     25  C    Isotropic =    31.2841   Anisotropy =   130.4410

     26  H    Isotropic =    29.9135   Anisotropy =     6.9657

     27  H    Isotropic =    29.9085   Anisotropy =     8.9512

     28  H    Isotropic =    28.8070   Anisotropy =     5.7359

     29  H    Isotropic =    28.6835   Anisotropy =    10.9769

     30  H    Isotropic =    29.1520   Anisotropy =     8.0684

     31  H    Isotropic =    27.9187   Anisotropy =     9.2970

     32  H    Isotropic =    25.6140   Anisotropy =     5.4311

     33  H    Isotropic =    27.6409   Anisotropy =     9.6179

     34  H    Isotropic =    27.4891   Anisotropy =     7.1175

     35  H    Isotropic =    27.4290   Anisotropy =     6.2806

     36  H    Isotropic =    28.7887   Anisotropy =     7.4980

     37  H    Isotropic =    29.1421   Anisotropy =     4.6811

     38  H    Isotropic =    27.8677   Anisotropy =     3.2587

     39  H    Isotropic =    30.6321   Anisotropy =     2.9545

     40  H    Isotropic =    28.6188   Anisotropy =     8.3365

     41  H    Isotropic =    29.4647   Anisotropy =    10.4338

     42  H    Isotropic =    30.4285   Anisotropy =     6.7036

     43  H    Isotropic =    27.7513   Anisotropy =     9.0953

     44  H    Isotropic =    24.2817   Anisotropy =    10.1671

     45  H    Isotropic =    24.4343   Anisotropy =     4.9934

     46  H    Isotropic =    24.2484   Anisotropy =     4.5772

     47  H    Isotropic =    23.3187   Anisotropy =     9.3573

 The electronic state is 1-A.
 Alpha  occ. eigenvalues --  -19.12750 -19.09698 -14.35495 -14.30067 -10.27897
 Alpha  occ. eigenvalues --  -10.23048 -10.21615 -10.21570 -10.21492 -10.20036
 Alpha  occ. eigenvalues --  -10.19470 -10.19248 -10.18657 -10.18329 -10.18087
 Alpha  occ. eigenvalues --  -10.18080 -10.17709 -10.17646 -10.17603 -10.17357
 Alpha  occ. eigenvalues --  -10.17149 -10.17081 -10.16710 -10.16693 -10.16243
 Alpha  occ. eigenvalues --   -1.04634  -1.03497  -0.96780  -0.93293  -0.85752
 Alpha  occ. eigenvalues --   -0.83249  -0.82022  -0.80400  -0.76791  -0.75022
 Alpha  occ. eigenvalues --   -0.74595  -0.73282  -0.71304  -0.69966  -0.66226
 Alpha  occ. eigenvalues --   -0.64645  -0.62998  -0.62685  -0.60418  -0.58100
 Alpha  occ. eigenvalues --   -0.57262  -0.55378  -0.55064  -0.51594  -0.50985
 Alpha  occ. eigenvalues --   -0.50480  -0.49563  -0.48548  -0.48215  -0.47280
 Alpha  occ. eigenvalues --   -0.46491  -0.46191  -0.45257  -0.44875  -0.44656
 Alpha  occ. eigenvalues --   -0.43906  -0.43138  -0.41495  -0.41264  -0.40326
 Alpha  occ. eigenvalues --   -0.39710  -0.39256  -0.38950  -0.38727  -0.37736
 Alpha  occ. eigenvalues --   -0.37204  -0.36769  -0.36646  -0.36064  -0.35628
 Alpha  occ. eigenvalues --   -0.35249  -0.34057  -0.33324  -0.32902  -0.32721
 Alpha  occ. eigenvalues --   -0.31600  -0.31125  -0.29788  -0.26693  -0.26152
 Alpha  occ. eigenvalues --   -0.25309  -0.24667  -0.21906  -0.20803
 Alpha virt. eigenvalues --   -0.02345  -0.01754  -0.01312   0.00396   0.01114
 Alpha virt. eigenvalues --    0.01226   0.01485   0.02431   0.02626   0.02837
 Alpha virt. eigenvalues --    0.03393   0.03459   0.03764   0.04573   0.04829

 Mulliken charges:
               1
     1  C   -0.359927
     2  C   -0.198261
     3  N   -0.125888
     4  C   -0.758137
     5  C    0.665897
     6  C    0.094639
     7  C   -0.078903
     8  O   -0.314279
     9  C   -0.220994
    10  C   -0.618154
    11  C    0.607095
    12  O   -0.543800
    13  N   -0.194099
    14  C   -0.202467
    15  C    0.071664
    16  C    0.003518
    17  C   -0.652434
    18  C    0.151262
    19  C    0.266695
    20  C    0.630741
    21  C   -0.477227
    22  C   -0.365568
    23  C   -0.289066
    24  C   -0.378597
    25  C    0.412912
    26  H    0.128669
    27  H    0.133949
    28  H    0.124823
    29  H    0.120607
    30  H    0.146094
    31  H    0.138678
    32  H    0.098342
    33  H    0.130997
    34  H    0.126774
    35  H    0.115466
    36  H    0.162478
    37  H    0.178631
    38  H    0.141201
    39  H    0.119361
    40  H    0.123248
    41  H    0.141002
    42  H    0.144908
    43  H    0.097270
    44  H    0.124889
    45  H    0.112369
    46  H    0.113486
    47  H    0.150136
 Sum of Mulliken charges =  -0.00000

 Dipole moment (field-independent basis, Debye):
    X=             -4.0583    Y=             -3.5434    Z=             -1.5253  Tot=              5.5993
 Quadrupole moment (field-independent basis, Debye-Ang):
   XX=           -146.4062   YY=           -161.3852   ZZ=           -144.2047
   XY=            -12.7194   XZ=              0.4981   YZ=             -2.8868

 Normal termination of Gaussian 16 at Tue Sep  6 14:01:56 2022.
