 Gaussian 16, Revision C.01,
 Gaussian 16:  AS64L-G16RevC.01  3-Jul-2019

 ------------------------------------------------------------
 # B3LYP/6-311+G(2d,p) scrf=(solvent=chloroform,smd) nmr=giao
 ------------------------------------------------------------

 --------------------------
 Strychnine_rdkit_conf_2_SP
 --------------------------
 Symbolic Z-matrix:
 Charge =  0 Multiplicity = 1

                         Standard orientation:
 ---------------------------------------------------------------------
 Center     Atomic      Atomic             Coordinates (Angstroms)
 Number     Number       Type             X           Y           Z
 ---------------------------------------------------------------------
      1          6           0        0.451819   -1.884280    1.699687
      2          6           0       -0.997620   -2.384344    1.729694
      3          7           0       -1.345657   -2.672587    0.323372
      4          6           0       -2.707323   -2.234528   -0.055199
      5          6           0       -2.730325   -0.745276   -0.343470
      6          6           0       -3.434091    0.106589    0.415842
      7          6           0       -3.429788    1.614233    0.402699
      8          8           0       -2.730362    2.248307   -0.659371
      9          6           0       -1.304315    2.172184   -0.721734
     10          6           0       -0.585597    2.899368    0.451127
     11          6           0        0.897169    2.530893    0.528075
     12          8           0        1.799123    3.362058    0.518681
     13          7           0        1.115011    1.167137    0.587062
     14          6           0       -0.042779    0.265339    0.384519
     15          6           0       -0.741981    0.737255   -0.903444
     16          6           0       -1.725710   -0.322579   -1.421429
     17          6           0       -0.860775   -1.534737   -1.826503
     18          6           0       -0.260626   -2.151908   -0.561357
     19          6           0        0.566642   -1.168576    0.327253
     20          6           0        2.009308   -0.869567   -0.033220
     21          6           0        3.023984   -1.726452   -0.448507
     22          6           0        4.320718   -1.222365   -0.623432
     23          6           0        4.591568    0.125176   -0.367316
     24          6           0        3.585977    1.002625    0.058253
     25          6           0        2.298377    0.485877    0.211793
     26          1           0        0.696504   -1.226518    2.539586
     27          1           0        1.155285   -2.723779    1.720408
     28          1           0       -1.113045   -3.279461    2.352596
     29          1           0       -1.658810   -1.608625    2.147005
     30          1           0       -3.385311   -2.490376    0.763756
     31          1           0       -3.037476   -2.814339   -0.925478
     32          1           0       -4.089569   -0.308128    1.184334
     33          1           0       -4.459540    1.980352    0.309067
     34          1           0       -3.071432    1.977012    1.381997
     35          1           0       -1.092002    2.732364   -1.636643
     36          1           0       -1.057742    2.625288    1.402416
     37          1           0       -0.658154    3.982309    0.345436
     38          1           0       -0.722243    0.349384    1.236040
     39          1           0        0.054257    0.822676   -1.655703
     40          1           0       -2.258427    0.070510   -2.295605
     41          1           0       -0.061067   -1.219099   -2.505026
     42          1           0       -1.443668   -2.290352   -2.362841
     43          1           0        0.398659   -2.986321   -0.837523
     44          1           0        2.818874   -2.777398   -0.634255
     45          1           0        5.117084   -1.883031   -0.952545
     46          1           0        5.600324    0.505393   -0.499999
     47          1           0        3.784142    2.047803    0.255463
 ---------------------------------------------------------------------

 SCF Done:  E(RB3LYP) =  -1073.73022557     A.U. after   14 cycles

      1  C    Isotropic =   136.8403   Anisotropy =    46.7500

      2  C    Isotropic =   129.7338   Anisotropy =    59.6167

      3  N    Isotropic =   193.5694   Anisotropy =    60.2262

      4  C    Isotropic =   124.9928   Anisotropy =    29.8228

      5  C    Isotropic =    37.0515   Anisotropy =   163.6304

      6  C    Isotropic =    49.7201   Anisotropy =   115.0161

      7  C    Isotropic =   114.2565   Anisotropy =    60.3836

      8  O    Isotropic =   267.3806   Anisotropy =    61.5634

      9  C    Isotropic =   103.4774   Anisotropy =    56.0231

     10  C    Isotropic =   144.4138   Anisotropy =    46.7840

     11  C    Isotropic =     2.6107   Anisotropy =   114.4500

     12  O    Isotropic =   -96.8912   Anisotropy =   604.2652

     13  N    Isotropic =    76.7837   Anisotropy =    97.6353

     14  C    Isotropic =   114.0902   Anisotropy =    39.5033

     15  C    Isotropic =   126.5343   Anisotropy =    32.2918

     16  C    Isotropic =   146.6844   Anisotropy =    10.4178

     17  C    Isotropic =   151.6915   Anisotropy =    15.6861

     18  C    Isotropic =   116.1510   Anisotropy =    36.5374

     19  C    Isotropic =   122.9628   Anisotropy =    25.4863

     20  C    Isotropic =    39.9905   Anisotropy =   153.2649

     21  C    Isotropic =    54.0452   Anisotropy =   180.5072

     22  C    Isotropic =    53.8823   Anisotropy =   177.5227

     23  C    Isotropic =    49.0123   Anisotropy =   184.3157

     24  C    Isotropic =    61.8602   Anisotropy =   164.4376

     25  C    Isotropic =    31.2482   Anisotropy =   131.1127

     26  H    Isotropic =    29.8905   Anisotropy =     6.6406

     27  H    Isotropic =    30.0470   Anisotropy =     8.9140

     28  H    Isotropic =    28.6812   Anisotropy =    11.0587

     29  H    Isotropic =    28.9517   Anisotropy =     5.7091

     30  H    Isotropic =    29.3183   Anisotropy =     8.4848

     31  H    Isotropic =    27.9703   Anisotropy =     9.1684

     32  H    Isotropic =    26.3574   Anisotropy =     4.8128

     33  H    Isotropic =    27.3789   Anisotropy =     9.0565

     34  H    Isotropic =    26.8829   Anisotropy =     5.8564

     35  H    Isotropic =    27.3180   Anisotropy =     5.9613

     36  H    Isotropic =    28.3291   Anisotropy =     4.1200

     37  H    Isotropic =    29.4436   Anisotropy =     8.6676

     38  H    Isotropic =    27.7405   Anisotropy =     2.9516

     39  H    Isotropic =    30.1554   Anisotropy =     2.3595

     40  H    Isotropic =    28.4491   Anisotropy =     8.6149

     41  H    Isotropic =    30.3939   Anisotropy =     7.2737

     42  H    Isotropic =    29.4315   Anisotropy =    10.4741

     43  H    Isotropic =    27.7640   Anisotropy =     9.2460

     44  H    Isotropic =    24.2964   Anisotropy =    10.1060

     45  H    Isotropic =    24.4261   Anisotropy =     4.9732

     46  H    Isotropic =    24.2622   Anisotropy =     4.5661

     47  H    Isotropic =    23.4174   Anisotropy =     9.2694

 The electronic state is 1-A.
 Alpha  occ. eigenvalues --  -19.12988 -19.10003 -14.35548 -14.30111 -10.28111
 Alpha  occ. eigenvalues --  -10.23077 -10.22087 -10.21689 -10.21371 -10.20083
 Alpha  occ. eigenvalues --  -10.19484 -10.19147 -10.18733 -10.18232 -10.17958
 Alpha  occ. eigenvalues --  -10.17870 -10.17781 -10.17679 -10.17453 -10.17445
 Alpha  occ. eigenvalues --  -10.17270 -10.17153 -10.16766 -10.16647 -10.16564
 Alpha  occ. eigenvalues --   -1.04827  -1.03716  -0.97065  -0.93238  -0.85821
 Alpha  occ. eigenvalues --   -0.83237  -0.81851  -0.80247  -0.77034  -0.74968
 Alpha  occ. eigenvalues --   -0.74786  -0.73321  -0.71536  -0.70055  -0.66948
 Alpha  occ. eigenvalues --   -0.64566  -0.63016  -0.62347  -0.60694  -0.58043
 Alpha  occ. eigenvalues --   -0.57133  -0.55470  -0.54680  -0.51880  -0.51323
 Alpha  occ. eigenvalues --   -0.50842  -0.49702  -0.48686  -0.47250  -0.46997
 Alpha  occ. eigenvalues --   -0.46738  -0.46198  -0.45174  -0.44851  -0.44153
 Alpha  occ. eigenvalues --   -0.43704  -0.43256  -0.42583  -0.41237  -0.41015
 Alpha  occ. eigenvalues --   -0.39763  -0.39152  -0.39084  -0.38896  -0.38012
 Alpha  occ. eigenvalues --   -0.37874  -0.37136  -0.36565  -0.36117  -0.35494
 Alpha  occ. eigenvalues --   -0.34768  -0.34037  -0.33398  -0.33147  -0.32619
 Alpha  occ. eigenvalues --   -0.31679  -0.30663  -0.29715  -0.27047  -0.26017
 Alpha  occ. eigenvalues --   -0.25400  -0.24453  -0.21992  -0.20807
 Alpha virt. eigenvalues --   -0.02484  -0.01826  -0.00274   0.00423   0.01112
 Alpha virt. eigenvalues --    0.01140   0.01269   0.02416   0.02685   0.02995
 Alpha virt. eigenvalues --    0.03131   0.03498   0.03844   0.04556   0.04816

 Mulliken charges:
               1
     1  C   -0.327452
     2  C   -0.207754
     3  N   -0.127672
     4  C   -0.779334
     5  C    0.883222
     6  C   -0.055602
     7  C   -0.223148
     8  O   -0.323253
     9  C   -0.224004
    10  C   -0.353460
    11  C    0.571195
    12  O   -0.537547
    13  N   -0.247181
    14  C   -0.151865
    15  C    0.060326
    16  C   -0.112899
    17  C   -0.565298
    18  C    0.071529
    19  C    0.266184
    20  C    0.611992
    21  C   -0.461870
    22  C   -0.351330
    23  C   -0.292032
    24  C   -0.341556
    25  C    0.358483
    26  H    0.128110
    27  H    0.132756
    28  H    0.119521
    29  H    0.120231
    30  H    0.145448
    31  H    0.134780
    32  H    0.103672
    33  H    0.146429
    34  H    0.139245
    35  H    0.127429
    36  H    0.160806
    37  H    0.159859
    38  H    0.128467
    39  H    0.112084
    40  H    0.119992
    41  H    0.138348
    42  H    0.140179
    43  H    0.101507
    44  H    0.124452
    45  H    0.112913
    46  H    0.114292
    47  H    0.149809
 Sum of Mulliken charges =  -0.00000

 Dipole moment (field-independent basis, Debye):
    X=             -3.0133    Y=             -3.7545    Z=              0.4211  Tot=              4.8326
 Quadrupole moment (field-independent basis, Debye-Ang):
   XX=           -148.4888   YY=           -163.5508   ZZ=           -143.8924
   XY=            -10.2121   XZ=             -8.7363   YZ=              1.2364

 Normal termination of Gaussian 16 at Tue Sep  6 14:03:04 2022.
