                         Program Version 5.0.2 -  RELEASE  -
|  1> # Do2_crest_conf_1_DLPNO
|  2> %maxcore 16000
|  3> %pal nprocs 8 end
|  4> ! DLPNO-CCSD(T) def2-tzvpp def2-tzvpp/C
|  5> %scf maxiter 500
|  6> end
|  7> % mdci
|  8> Density None
|  9> end
| 10> % elprop
| 11> Dipole False
| 12> end
| 13> * xyz 0 1
| 14>  C  -0.81224800   0.66744500  -0.00005900
| 15>  C  -0.81226600  -0.66742600   0.00004600
| 16>  C   0.69828000  -0.78466800   0.00005200
| 17>  C   0.69830000   0.78465100  -0.00004200
| 18>  H  -1.59860300   1.41172400  -0.00011500
| 19>  H  -1.59863900  -1.41168500   0.00009200
| 20>  H   1.14120200  -1.24324600  -0.88704900
| 21>  H   1.14119100  -1.24312500   0.88722300
| 22>  H   1.14121900   1.24321500   0.88706900
| 23>  H   1.14123900   1.24309800  -0.88720300
| 24> **                         ****END OF INPUT****

CARTESIAN COORDINATES (ANGSTROEM)
---------------------------------
  C     -0.812248    0.667445   -0.000059
  C     -0.812266   -0.667426    0.000046
  C      0.698280   -0.784668    0.000052
  C      0.698300    0.784651   -0.000042
  H     -1.598603    1.411724   -0.000115
  H     -1.598639   -1.411685    0.000092
  H      1.141202   -1.243246   -0.887049
  H      1.141191   -1.243125    0.887223
  H      1.141219    1.243215    0.887069
  H      1.141239    1.243098   -0.887203

 Total Charge           Charge          ....    0
 Multiplicity           Mult            ....    1
 Number of Electrons    NEL             ....   30
 Basis Dimension        Dim             ....  208

ORBITAL ENERGIES
----------------

  NO   OCC          E(Eh)            E(eV)
   0   2.0000     -11.225547      -305.4627
   1   2.0000     -11.224795      -305.4422
   2   2.0000     -11.224576      -305.4363
   3   2.0000     -11.223564      -305.4087
   4   2.0000      -1.145097       -31.1597
   5   2.0000      -0.897176       -24.4134
   6   2.0000      -0.876210       -23.8429
   7   2.0000      -0.706571       -19.2268
   8   2.0000      -0.674223       -18.3465
   9   2.0000      -0.622211       -16.9312
  10   2.0000      -0.533287       -14.5115
  11   2.0000      -0.505527       -13.7561
  12   2.0000      -0.462492       -12.5851
  13   2.0000      -0.455066       -12.3830
  14   2.0000      -0.350928        -9.5492
  15   0.0000       0.156625         4.2620
  16   0.0000       0.159738         4.3467
  17   0.0000       0.172465         4.6930
  18   0.0000       0.188817         5.1380
  19   0.0000       0.197003         5.3607

MULLIKEN ATOMIC CHARGES
-----------------------
   0 C :   -0.139605
   1 C :   -0.139608
   2 C :   -0.049948
   3 C :   -0.049949
   4 H :    0.095608
   5 H :    0.095609
   6 H :    0.046974
   7 H :    0.046973
   8 H :    0.046974
   9 H :    0.046973
Sum of atomic charges:   -0.0000000

LOEWDIN ATOMIC CHARGES
----------------------
   0 C :    0.000500
   1 C :    0.000501
   2 C :    0.007809
   3 C :    0.007809
   4 H :   -0.010217
   5 H :   -0.010218
   6 H :    0.000954
   7 H :    0.000954
   8 H :    0.000954
   9 H :    0.000953

  Mayer bond orders larger than 0.100000
B(  0-C ,  1-C ) :   1.9143 B(  0-C ,  3-C ) :   0.9974 B(  0-C ,  4-H ) :   0.9641
B(  1-C ,  2-C ) :   0.9974 B(  1-C ,  5-H ) :   0.9641 B(  2-C ,  3-C ) :   0.9671
B(  2-C ,  6-H ) :   1.0086 B(  2-C ,  7-H ) :   1.0086 B(  3-C ,  8-H ) :   1.0086
B(  3-C ,  9-H ) :   1.0086

E(0)                                       ...   -154.957703433
E(0)                                       ...   -154.957703433
E(CORR)(strong-pairs)                      ...     -0.689792886
E(CORR)(weak-pairs)                        ...     -0.001324547
E(CORR)(corrected)                         ...     -0.691117433
E(TOT)                                     ...   -155.648820866
E(CCSD(T))                                 ...   -155.678665047
FINAL SINGLE POINT ENERGY      -155.678665047300
                             ****ORCA TERMINATED NORMALLY****
TOTAL RUN TIME: 0 days 0 hours 0 minutes 54 seconds 69 msec
