                         Program Version 5.0.2 -  RELEASE  -
|  1> # Do3_crest_conf_1_DLPNO
|  2> %maxcore 16000
|  3> %pal nprocs 8 end
|  4> ! DLPNO-CCSD(T) def2-tzvpp def2-tzvpp/C
|  5> %scf maxiter 500
|  6> end
|  7> % mdci
|  8> Density None
|  9> end
| 10> % elprop
| 11> Dipole False
| 12> end
| 13> * xyz 0 1
| 14>  C  -0.66458900   1.07303000  -0.04385900
| 15>  C   0.66462600   1.07300600  -0.04387400
| 16>  C   1.23368700  -0.31648300   0.09616500
| 17>  C  -0.00002000  -1.22626700  -0.12581100
| 18>  C  -1.23369900  -0.31644300   0.09615800
| 19>  H  -1.28482800   1.95901300  -0.09728600
| 20>  H   1.28489700   1.95896500  -0.09730700
| 21>  H   2.03558600  -0.52093400  -0.61780500
| 22>  H   1.66852900  -0.45326700   1.09357800
| 23>  H  -0.00003700  -2.10047300   0.52533300
| 24>  H  -0.00002500  -1.59027600  -1.15493900
| 25>  H  -2.03560200  -0.52086500  -0.61781900
| 26>  H  -1.66855000  -0.45321900   1.09356700
| 27> **                         ****END OF INPUT****

CARTESIAN COORDINATES (ANGSTROEM)
---------------------------------
  C     -0.664589    1.073030   -0.043859
  C      0.664626    1.073006   -0.043874
  C      1.233687   -0.316483    0.096165
  C     -0.000020   -1.226267   -0.125811
  C     -1.233699   -0.316443    0.096158
  H     -1.284828    1.959013   -0.097286
  H      1.284897    1.958965   -0.097307
  H      2.035586   -0.520934   -0.617805
  H      1.668529   -0.453267    1.093578
  H     -0.000037   -2.100473    0.525333
  H     -0.000025   -1.590276   -1.154939
  H     -2.035602   -0.520865   -0.617819
  H     -1.668550   -0.453219    1.093567

 Total Charge           Charge          ....    0
 Multiplicity           Mult            ....    1
 Number of Electrons    NEL             ....   38
 Basis Dimension        Dim             ....  267

ORBITAL ENERGIES
----------------

  NO   OCC          E(Eh)            E(eV)
   0   2.0000     -11.219151      -305.2886
   1   2.0000     -11.219059      -305.2861
   2   2.0000     -11.217773      -305.2511
   3   2.0000     -11.216620      -305.2198
   4   2.0000     -11.216043      -305.2041
   5   2.0000      -1.126474       -30.6529
   6   2.0000      -0.961500       -26.1638
   7   2.0000      -0.953756       -25.9530
   8   2.0000      -0.784934       -21.3591
   9   2.0000      -0.721256       -19.6264
  10   2.0000      -0.671331       -18.2679
  11   2.0000      -0.632669       -17.2158
  12   2.0000      -0.548720       -14.9314
  13   2.0000      -0.531962       -14.4754
  14   2.0000      -0.488299       -13.2873
  15   2.0000      -0.486847       -13.2478
  16   2.0000      -0.483002       -13.1432
  17   2.0000      -0.472143       -12.8477
  18   2.0000      -0.340343        -9.2612
  19   0.0000       0.142945         3.8897
  20   0.0000       0.167393         4.5550
  21   0.0000       0.176100         4.7919
  22   0.0000       0.183103         4.9825
  23   0.0000       0.187155         5.0927

MULLIKEN ATOMIC CHARGES
-----------------------
   0 C :   -0.153133
   1 C :   -0.153131
   2 C :   -0.009942
   3 C :   -0.107081
   4 C :   -0.009943
   5 H :    0.080929
   6 H :    0.080929
   7 H :    0.045988
   8 H :    0.041536
   9 H :    0.051162
  10 H :    0.045162
  11 H :    0.045989
  12 H :    0.041535
Sum of atomic charges:   -0.0000000

LOEWDIN ATOMIC CHARGES
----------------------
   0 C :   -0.015401
   1 C :   -0.015401
   2 C :   -0.012982
   3 C :    0.011308
   4 C :   -0.012981
   5 H :    0.000481
   6 H :    0.000481
   7 H :    0.006848
   8 H :    0.010071
   9 H :    0.001737
  10 H :    0.008921
  11 H :    0.006849
  12 H :    0.010070

  Mayer bond orders larger than 0.100000
B(  0-C ,  1-C ) :   1.9704 B(  0-C ,  4-C ) :   0.9614 B(  0-C ,  5-H ) :   0.9877
B(  1-C ,  2-C ) :   0.9614 B(  1-C ,  6-H ) :   0.9877 B(  2-C ,  3-C ) :   0.9536
B(  2-C ,  7-H ) :   1.0189 B(  2-C ,  8-H ) :   1.0016 B(  3-C ,  4-C ) :   0.9537
B(  3-C ,  9-H ) :   1.0219 B(  3-C , 10-H ) :   1.0186 B(  4-C , 11-H ) :   1.0189
B(  4-C , 12-H ) :   1.0016

E(0)                                       ...   -194.048872385
E(0)                                       ...   -194.048872385
E(CORR)(strong-pairs)                      ...     -0.872461975
E(CORR)(weak-pairs)                        ...     -0.001962559
E(CORR)(corrected)                         ...     -0.874424534
E(TOT)                                     ...   -194.923296919
E(CCSD(T))                                 ...   -194.960046601
FINAL SINGLE POINT ENERGY      -194.960046600534
                             ****ORCA TERMINATED NORMALLY****
TOTAL RUN TIME: 0 days 0 hours 1 minutes 53 seconds 52 msec
