                         Program Version 5.0.2 -  RELEASE  -
|  1> # P1_crest_conf_1_DLPNO
|  2> %maxcore 16000
|  3> %pal nprocs 8 end
|  4> ! DLPNO-CCSD(T) def2-tzvpp def2-tzvpp/C
|  5> %scf maxiter 500
|  6> end
|  7> % mdci
|  8> Density None
|  9> end
| 10> % elprop
| 11> Dipole False
| 12> end
| 13> * xyz 0 1
| 14>  C   1.05770200  -0.39285900   0.75538900
| 15>  C  -0.46280900  -0.31234800   1.12292200
| 16>  C  -1.01979000   1.02401100   0.66732800
| 17>  C  -1.01979100   1.02400700  -0.66733100
| 18>  C  -0.46281000  -0.31235300  -1.12292000
| 19>  C  -1.03426000  -1.22112400   0.00000300
| 20>  C   1.05770300  -0.39286200  -0.75538800
| 21>  C   1.74162900   0.71259600  -0.00000200
| 22>  H   1.66011600  -1.09037000   1.32226400
| 23>  H  -0.67601400  -0.59398700   2.15186900
| 24>  H  -1.26426200   1.85085600   1.32004100
| 25>  H  -1.26426500   1.85084900  -1.32004800
| 26>  H  -0.67601500  -0.59399600  -2.15186600
| 27>  H  -2.12403200  -1.28239500   0.00000400
| 28>  H  -0.60013700  -2.22319000   0.00000500
| 29>  H   1.66011200  -1.09037600  -1.32226400
| 30>  H   1.31431300   1.70582600  -0.00000400
| 31>  H   2.82474300   0.69237400  -0.00000200
| 32> **                         ****END OF INPUT****

CARTESIAN COORDINATES (ANGSTROEM)
---------------------------------
  C      1.057702   -0.392859    0.755389
  C     -0.462809   -0.312348    1.122922
  C     -1.019790    1.024011    0.667328
  C     -1.019791    1.024007   -0.667331
  C     -0.462810   -0.312353   -1.122920
  C     -1.034260   -1.221124    0.000003
  C      1.057703   -0.392862   -0.755388
  C      1.741629    0.712596   -0.000002
  H      1.660116   -1.090370    1.322264
  H     -0.676014   -0.593987    2.151869
  H     -1.264262    1.850856    1.320041
  H     -1.264265    1.850849   -1.320048
  H     -0.676015   -0.593996   -2.151866
  H     -2.124032   -1.282395    0.000004
  H     -0.600137   -2.223190    0.000005
  H      1.660112   -1.090376   -1.322264
  H      1.314313    1.705826   -0.000004
  H      2.824743    0.692374   -0.000002

 Total Charge           Charge          ....    0
 Multiplicity           Mult            ....    1
 Number of Electrons    NEL             ....   58
 Basis Dimension        Dim             ....  388

ORBITAL ENERGIES
----------------

  NO   OCC          E(Eh)            E(eV)
   0   2.0000     -11.231490      -305.6244
   1   2.0000     -11.231486      -305.6243
   2   2.0000     -11.221518      -305.3530
   3   2.0000     -11.220763      -305.3325
   4   2.0000     -11.218393      -305.2680
   5   2.0000     -11.217618      -305.2469
   6   2.0000     -11.216670      -305.2211
   7   2.0000     -11.216592      -305.2190
   8   2.0000      -1.197453       -32.5843
   9   2.0000      -1.082926       -29.4679
  10   2.0000      -0.967553       -26.3285
  11   2.0000      -0.960226       -26.1291
  12   2.0000      -0.823930       -22.4203
  13   2.0000      -0.777341       -21.1525
  14   2.0000      -0.759804       -20.6753
  15   2.0000      -0.702646       -19.1200
  16   2.0000      -0.693757       -18.8781
  17   2.0000      -0.650860       -17.7108
  18   2.0000      -0.623696       -16.9716
  19   2.0000      -0.561901       -15.2901
  20   2.0000      -0.531753       -14.4697
  21   2.0000      -0.522948       -14.2301
  22   2.0000      -0.498370       -13.5613
  23   2.0000      -0.468804       -12.7568
  24   2.0000      -0.468252       -12.7418
  25   2.0000      -0.458243       -12.4694
  26   2.0000      -0.404725       -11.0131
  27   2.0000      -0.382336       -10.4039
  28   2.0000      -0.339266        -9.2319
  29   0.0000       0.144928         3.9437
  30   0.0000       0.147558         4.0153
  31   0.0000       0.169565         4.6141
  32   0.0000       0.176090         4.7917
  33   0.0000       0.181089         4.9277

MULLIKEN ATOMIC CHARGES
-----------------------
   0 C :   -0.146923
   1 C :    0.218490
   2 C :   -0.243301
   3 C :   -0.243301
   4 C :    0.218490
   5 C :   -0.245251
   6 C :   -0.146923
   7 C :   -0.130149
   8 H :    0.052913
   9 H :    0.097473
  10 H :    0.092610
  11 H :    0.092610
  12 H :    0.097473
  13 H :    0.056174
  14 H :    0.057655
  15 H :    0.052913
  16 H :    0.062178
  17 H :    0.056870
Sum of atomic charges:   -0.0000000

LOEWDIN ATOMIC CHARGES
----------------------
   0 C :   -0.014749
   1 C :   -0.034396
   2 C :    0.011065
   3 C :    0.011065
   4 C :   -0.034396
   5 C :    0.026282
   6 C :   -0.014749
   7 C :    0.022546
   8 H :   -0.001611
   9 H :    0.005886
  10 H :   -0.002076
  11 H :   -0.002076
  12 H :    0.005886
  13 H :    0.007427
  14 H :    0.009422
  15 H :   -0.001611
  16 H :    0.000473
  17 H :    0.005612

  Mayer bond orders larger than 0.100000
B(  0-C ,  1-C ) :   0.9002 B(  0-C ,  6-C ) :   0.9254 B(  0-C ,  7-C ) :   0.9775
B(  0-C ,  8-H ) :   1.0245 B(  1-C ,  2-C ) :   0.9421 B(  1-C ,  5-C ) :   0.9490
B(  1-C ,  9-H ) :   0.9764 B(  2-C ,  3-C ) :   1.9956 B(  2-C , 10-H ) :   0.9838
B(  3-C ,  4-C ) :   0.9421 B(  3-C , 11-H ) :   0.9838 B(  4-C ,  5-C ) :   0.9490
B(  4-C ,  6-C ) :   0.9002 B(  4-C , 12-H ) :   0.9764 B(  5-C , 13-H ) :   1.0184
B(  5-C , 14-H ) :   1.0260 B(  6-C ,  7-C ) :   0.9775 B(  6-C , 15-H ) :   1.0245
B(  7-C , 16-H ) :   1.0253 B(  7-C , 17-H ) :   1.0167

E(0)                                       ...   -308.785618773
E(0)                                       ...   -308.785618773
E(CORR)(strong-pairs)                      ...     -1.359891606
E(CORR)(weak-pairs)                        ...     -0.004848801
E(CORR)(corrected)                         ...     -1.364740407
E(TOT)                                     ...   -310.150359180
E(CCSD(T))                                 ...   -310.212999225
FINAL SINGLE POINT ENERGY      -310.212999224743
                             ****ORCA TERMINATED NORMALLY****
TOTAL RUN TIME: 0 days 0 hours 8 minutes 10 seconds 435 msec
