                         Program Version 5.0.2 -  RELEASE  -
|  1> # TS1_crest_conf_1_DLPNO
|  2> %maxcore 16000
|  3> %pal nprocs 8 end
|  4> ! DLPNO-CCSD(T) def2-tzvpp def2-tzvpp/C
|  5> %scf maxiter 500
|  6> end
|  7> % mdci
|  8> Density None
|  9> end
| 10> % elprop
| 11> Dipole False
| 12> end
| 13> * xyz 0 1
| 14>  C  -0.85603500  -0.24863400  -1.15732600
| 15>  C  -1.00436600   1.05004700  -0.70532500
| 16>  C  -1.00423800   1.05019600   0.70533500
| 17>  C  -0.85584300  -0.24838500   1.15757100
| 18>  C  -1.14611900  -1.16773000   0.00024300
| 19>  C   1.38887300  -0.51625400   0.66916500
| 20>  C   1.38866300  -0.51644300  -0.66934900
| 21>  C   1.94547700   0.69022100  -0.00031500
| 22>  H  -0.92183800  -0.55303100  -2.19206300
| 23>  H  -1.01357700   1.93376000  -1.32749100
| 24>  H  -1.01332600   1.93403600   1.32732300
| 25>  H  -0.92145100  -0.55257200   2.19238100
| 26>  H  -0.60593700  -2.11214400   0.00030100
| 27>  H  -2.22191300  -1.39965300   0.00036000
| 28>  H   1.60238900  -1.14579400   1.51398700
| 29>  H   1.60223900  -1.14627400  -1.51394100
| 30>  H   3.01771200   0.88300100  -0.00045600
| 31>  H   1.33722900   1.60055900  -0.00039500
| 32> **                         ****END OF INPUT****

CARTESIAN COORDINATES (ANGSTROEM)
---------------------------------
  C     -0.856035   -0.248634   -1.157326
  C     -1.004366    1.050047   -0.705325
  C     -1.004238    1.050196    0.705335
  C     -0.855843   -0.248385    1.157571
  C     -1.146119   -1.167730    0.000243
  C      1.388873   -0.516254    0.669165
  C      1.388663   -0.516443   -0.669349
  C      1.945477    0.690221   -0.000315
  H     -0.921838   -0.553031   -2.192063
  H     -1.013577    1.933760   -1.327491
  H     -1.013326    1.934036    1.327323
  H     -0.921451   -0.552572    2.192381
  H     -0.605937   -2.112144    0.000301
  H     -2.221913   -1.399653    0.000360
  H      1.602389   -1.145794    1.513987
  H      1.602239   -1.146274   -1.513941
  H      3.017712    0.883001   -0.000456
  H      1.337229    1.600559   -0.000395

 Total Charge           Charge          ....    0
 Multiplicity           Mult            ....    1
 Number of Electrons    NEL             ....   58
 Basis Dimension        Dim             ....  388

ORBITAL ENERGIES
----------------

  NO   OCC          E(Eh)            E(eV)
   0   2.0000     -11.235689      -305.7387
   1   2.0000     -11.235683      -305.7385
   2   2.0000     -11.230063      -305.5856
   3   2.0000     -11.228347      -305.5389
   4   2.0000     -11.226109      -305.4780
   5   2.0000     -11.221254      -305.3458
   6   2.0000     -11.220431      -305.3234
   7   2.0000     -11.219320      -305.2932
   8   2.0000      -1.167666       -31.7738
   9   2.0000      -1.129502       -30.7353
  10   2.0000      -0.959941       -26.1213
  11   2.0000      -0.954966       -25.9859
  12   2.0000      -0.808219       -21.9928
  13   2.0000      -0.759106       -20.6563
  14   2.0000      -0.758760       -20.6469
  15   2.0000      -0.717810       -19.5326
  16   2.0000      -0.697974       -18.9928
  17   2.0000      -0.661015       -17.9871
  18   2.0000      -0.624662       -16.9979
  19   2.0000      -0.561492       -15.2790
  20   2.0000      -0.546325       -14.8663
  21   2.0000      -0.527104       -14.3432
  22   2.0000      -0.519563       -14.1380
  23   2.0000      -0.496161       -13.5012
  24   2.0000      -0.461990       -12.5714
  25   2.0000      -0.418900       -11.3988
  26   2.0000      -0.413584       -11.2542
  27   2.0000      -0.310638        -8.4529
  28   2.0000      -0.302975        -8.2444
  29   0.0000       0.130267         3.5447
  30   0.0000       0.136228         3.7069
  31   0.0000       0.152739         4.1562
  32   0.0000       0.167388         4.5549
  33   0.0000       0.171828         4.6757

MULLIKEN ATOMIC CHARGES
-----------------------
   0 C :   -0.054275
   1 C :   -0.178640
   2 C :   -0.178604
   3 C :   -0.054335
   4 C :   -0.062656
   5 C :   -0.117862
   6 C :   -0.117856
   7 C :   -0.121381
   8 H :    0.110867
   9 H :    0.100419
  10 H :    0.100417
  11 H :    0.110862
  12 H :    0.057541
  13 H :    0.081081
  14 H :    0.130186
  15 H :    0.130153
  16 H :    0.038216
  17 H :    0.025866
Sum of atomic charges:    0.0000000

LOEWDIN ATOMIC CHARGES
----------------------
   0 C :    0.022443
   1 C :   -0.024456
   2 C :   -0.024451
   3 C :    0.022442
   4 C :   -0.026229
   5 C :    0.019835
   6 C :    0.019815
   7 C :   -0.025903
   8 H :   -0.002560
   9 H :    0.005016
  10 H :    0.005020
  11 H :   -0.002564
  12 H :    0.018794
  13 H :    0.031513
  14 H :   -0.012865
  15 H :   -0.012864
  16 H :   -0.007519
  17 H :   -0.005467

  Mayer bond orders larger than 0.100000
B(  0-C ,  1-C ) :   1.6268 B(  0-C ,  4-C ) :   0.9762 B(  0-C ,  6-C ) :   0.2378
B(  0-C ,  8-H ) :   0.9814 B(  1-C ,  2-C ) :   1.3312 B(  1-C ,  9-H ) :   0.9760
B(  2-C ,  3-C ) :   1.6268 B(  2-C , 10-H ) :   0.9760 B(  3-C ,  4-C ) :   0.9762
B(  3-C ,  5-C ) :   0.2378 B(  3-C , 11-H ) :   0.9814 B(  4-C , 12-H ) :   1.0076
B(  4-C , 13-H ) :   0.9791 B(  5-C ,  6-C ) :   1.6147 B(  5-C ,  7-C ) :   0.9796
B(  5-C , 14-H ) :   0.9715 B(  6-C ,  7-C ) :   0.9796 B(  6-C , 15-H ) :   0.9715
B(  7-C , 16-H ) :   1.0177 B(  7-C , 17-H ) :   1.0152

E(0)                                       ...   -308.679393001
E(0)                                       ...   -308.679393001
E(CORR)(strong-pairs)                      ...     -1.368137022
E(CORR)(weak-pairs)                        ...     -0.005926701
E(CORR)(corrected)                         ...     -1.374063723
E(TOT)                                     ...   -310.053456724
E(CCSD(T))                                 ...   -310.122336238
FINAL SINGLE POINT ENERGY      -310.122336237865
                             ****ORCA TERMINATED NORMALLY****
TOTAL RUN TIME: 0 days 0 hours 6 minutes 19 seconds 281 msec
