                         Program Version 5.0.2 -  RELEASE  -
|  1> # TS3_crest_conf_1_DLPNO
|  2> %maxcore 16000
|  3> %pal nprocs 8 end
|  4> ! DLPNO-CCSD(T) def2-tzvpp def2-tzvpp/C
|  5> %scf maxiter 500
|  6> end
|  7> % mdci
|  8> Density None
|  9> end
| 10> % elprop
| 11> Dipole False
| 12> end
| 13> * xyz 0 1
| 14>  C  -1.38155600  -1.15077000  -0.08287000
| 15>  C  -1.21459600  -0.69799900   1.22956300
| 16>  C  -1.21510500   0.69914900   1.22884200
| 17>  C  -1.38261300   1.15040600  -0.08400700
| 18>  C  -1.97357700  -0.00081500  -0.85673100
| 19>  C   0.58027400   0.69898000  -0.97682300
| 20>  C   0.58031800  -0.69971700  -0.97613100
| 21>  C   1.68808200  -1.22375900  -0.08161000
| 22>  C   2.09635000   0.00049700   0.76516500
| 23>  C   1.68763800   1.22406100  -0.08242000
| 24>  H  -1.54913800  -2.18645600  -0.34682400
| 25>  H  -0.98693900  -1.32270800   2.08198300
| 26>  H  -0.98797400   1.32492800   2.08062000
| 27>  H  -1.55079100   2.18568800  -0.34915600
| 28>  H  -1.78554300  -0.00118900  -1.92825300
| 29>  H  -3.06293400  -0.00128400  -0.70383200
| 30>  H   0.29595200   1.26657400  -1.85273600
| 31>  H   0.29605800  -1.26812000  -1.85153400
| 32>  H   1.39458100  -2.07832200   0.53218100
| 33>  H   2.52560000  -1.55861700  -0.70548300
| 34>  H   3.15766700   0.00076400   1.01648600
| 35>  H   1.54348000   0.00071000   1.70415100
| 36>  H   2.52510900   1.55901300  -0.70630500
| 37>  H   1.39358500   2.07881800   0.53083900
| 38> **                         ****END OF INPUT****

CARTESIAN COORDINATES (ANGSTROEM)
---------------------------------
  C     -1.381556   -1.150770   -0.082870
  C     -1.214596   -0.697999    1.229563
  C     -1.215105    0.699149    1.228842
  C     -1.382613    1.150406   -0.084007
  C     -1.973577   -0.000815   -0.856731
  C      0.580274    0.698980   -0.976823
  C      0.580318   -0.699717   -0.976131
  C      1.688082   -1.223759   -0.081610
  C      2.096350    0.000497    0.765165
  C      1.687638    1.224061   -0.082420
  H     -1.549138   -2.186456   -0.346824
  H     -0.986939   -1.322708    2.081983
  H     -0.987974    1.324928    2.080620
  H     -1.550791    2.185688   -0.349156
  H     -1.785543   -0.001189   -1.928253
  H     -3.062934   -0.001284   -0.703832
  H      0.295952    1.266574   -1.852736
  H      0.296058   -1.268120   -1.851534
  H      1.394581   -2.078322    0.532181
  H      2.525600   -1.558617   -0.705483
  H      3.157667    0.000764    1.016486
  H      1.543480    0.000710    1.704151
  H      2.525109    1.559013   -0.706305
  H      1.393585    2.078818    0.530839

 Total Charge           Charge          ....    0
 Multiplicity           Mult            ....    1
 Number of Electrons    NEL             ....   74
 Basis Dimension        Dim             ....  506

ORBITAL ENERGIES
----------------

  NO   OCC          E(Eh)            E(eV)
   0   2.0000     -11.234242      -305.6993
   1   2.0000     -11.234226      -305.6988
   2   2.0000     -11.222046      -305.3674
   3   2.0000     -11.220330      -305.3207
   4   2.0000     -11.219115      -305.2876
   5   2.0000     -11.214455      -305.1608
   6   2.0000     -11.213251      -305.1281
   7   2.0000     -11.211534      -305.0813
   8   2.0000     -11.211501      -305.0804
   9   2.0000     -11.207643      -304.9755
  10   2.0000      -1.158093       -31.5133
  11   2.0000      -1.107742       -30.1432
  12   2.0000      -0.967772       -26.3344
  13   2.0000      -0.961913       -26.1750
  14   2.0000      -0.939325       -25.5603
  15   2.0000      -0.932632       -25.3782
  16   2.0000      -0.775077       -21.0909
  17   2.0000      -0.757655       -20.6168
  18   2.0000      -0.737680       -20.0733
  19   2.0000      -0.700509       -19.0618
  20   2.0000      -0.695101       -18.9147
  21   2.0000      -0.657925       -17.9031
  22   2.0000      -0.632577       -17.2133
  23   2.0000      -0.588226       -16.0065
  24   2.0000      -0.544274       -14.8105
  25   2.0000      -0.537912       -14.6373
  26   2.0000      -0.532344       -14.4858
  27   2.0000      -0.518133       -14.0991
  28   2.0000      -0.510392       -13.8885
  29   2.0000      -0.493485       -13.4284
  30   2.0000      -0.479031       -13.0351
  31   2.0000      -0.477565       -12.9952
  32   2.0000      -0.467591       -12.7238
  33   2.0000      -0.462267       -12.5789
  34   2.0000      -0.422663       -11.5012
  35   2.0000      -0.297320        -8.0905
  36   2.0000      -0.288205        -7.8425
  37   0.0000       0.128376         3.4933
  38   0.0000       0.138766         3.7760
  39   0.0000       0.138884         3.7792
  40   0.0000       0.162149         4.4123
  41   0.0000       0.166964         4.5433

MULLIKEN ATOMIC CHARGES
-----------------------
   0 C :   -0.007110
   1 C :   -0.212214
   2 C :   -0.211915
   3 C :   -0.007524
   4 C :   -0.102922
   5 C :   -0.119328
   6 C :   -0.119182
   7 C :   -0.095006
   8 C :   -0.083482
   9 C :   -0.094965
  10 H :    0.109710
  11 H :    0.094049
  12 H :    0.094063
  13 H :    0.109698
  14 H :    0.055130
  15 H :    0.079044
  16 H :    0.105425
  17 H :    0.105414
  18 H :    0.045533
  19 H :    0.054614
  20 H :    0.060071
  21 H :    0.040722
  22 H :    0.054627
  23 H :    0.045546
Sum of atomic charges:    0.0000000

LOEWDIN ATOMIC CHARGES
----------------------
   0 C :    0.020385
   1 C :   -0.029545
   2 C :   -0.029541
   3 C :    0.020415
   4 C :   -0.028599
   5 C :   -0.003941
   6 C :   -0.004018
   7 C :   -0.014676
   8 C :    0.005456
   9 C :   -0.014686
  10 H :   -0.002577
  11 H :    0.002310
  12 H :    0.002324
  13 H :   -0.002593
  14 H :    0.016045
  15 H :    0.030398
  16 H :   -0.003620
  17 H :   -0.003589
  18 H :    0.005431
  19 H :    0.010451
  20 H :    0.002202
  21 H :    0.006089
  22 H :    0.010444
  23 H :    0.005435

  Mayer bond orders larger than 0.100000
B(  0-C ,  1-C ) :   1.4837 B(  0-C ,  4-C ) :   0.9773 B(  0-C ,  6-C ) :   0.3712
B(  0-C , 10-H ) :   0.9804 B(  1-C ,  2-C ) :   1.4465 B(  1-C , 11-H ) :   0.9891
B(  2-C ,  3-C ) :   1.4839 B(  2-C , 12-H ) :   0.9891 B(  3-C ,  4-C ) :   0.9773
B(  3-C ,  5-C ) :   0.3712 B(  3-C , 13-H ) :   0.9804 B(  4-C , 14-H ) :   1.0295
B(  4-C , 15-H ) :   0.9743 B(  5-C ,  6-C ) :   1.4443 B(  5-C ,  9-C ) :   0.9575
B(  5-C , 16-H ) :   1.0079 B(  6-C ,  7-C ) :   0.9575 B(  6-C , 17-H ) :   1.0079
B(  7-C ,  8-C ) :   0.9536 B(  7-C , 18-H ) :   1.0285 B(  7-C , 19-H ) :   1.0112
B(  8-C ,  9-C ) :   0.9536 B(  8-C , 20-H ) :   1.0179 B(  8-C , 21-H ) :   1.0186
B(  9-C , 22-H ) :   1.0112 B(  9-C , 23-H ) :   1.0285

E(0)                                       ...   -386.834328387
E(0)                                       ...   -386.834328387
E(CORR)(strong-pairs)                      ...     -1.739870684
E(CORR)(weak-pairs)                        ...     -0.009881897
E(CORR)(corrected)                         ...     -1.749752581
E(TOT)                                     ...   -388.584080968
E(CCSD(T))                                 ...   -388.668266563
FINAL SINGLE POINT ENERGY      -388.668266563416
                             ****ORCA TERMINATED NORMALLY****
TOTAL RUN TIME: 0 days 0 hours 15 minutes 39 seconds 577 msec
