                         Program Version 5.0.2 -  RELEASE  -
|  1> # Diene_crest_conf_1_DLPNO
|  2> %maxcore 16000
|  3> %pal nprocs 8 end
|  4> ! DLPNO-CCSD(T) def2-tzvpp def2-tzvpp/C
|  5> %scf maxiter 500
|  6> end
|  7> % mdci
|  8> Density None
|  9> end
| 10> % elprop
| 11> Dipole False
| 12> end
| 13> * xyz 0 1
| 14>  C  -1.17646300  -0.28050800   0.00008900
| 15>  C  -0.73252100   0.98776300  -0.00003600
| 16>  C   0.73268500   0.98764100  -0.00003800
| 17>  C   1.17641700  -0.28070200   0.00003300
| 18>  C  -0.00010100  -1.21335500  -0.00003000
| 19>  H  -2.20602700  -0.60641900   0.00015300
| 20>  H  -1.34516700   1.87858300  -0.00006700
| 21>  H   1.34548000   1.87836000  -0.00009300
| 22>  H   2.20592600  -0.60678800   0.00003600
| 23>  H  -0.00016900  -1.87433700  -0.87566200
| 24>  H  -0.00014300  -1.87443500   0.87552200
| 25> **                         ****END OF INPUT****

CARTESIAN COORDINATES (ANGSTROEM)
---------------------------------
  C     -1.176463   -0.280508    0.000089
  C     -0.732521    0.987763   -0.000036
  C      0.732685    0.987641   -0.000038
  C      1.176417   -0.280702    0.000033
  C     -0.000101   -1.213355   -0.000030
  H     -2.206027   -0.606419    0.000153
  H     -1.345167    1.878583   -0.000067
  H      1.345480    1.878360   -0.000093
  H      2.205926   -0.606788    0.000036
  H     -0.000169   -1.874337   -0.875662
  H     -0.000143   -1.874435    0.875522

 Total Charge           Charge          ....    0
 Multiplicity           Mult            ....    1
 Number of Electrons    NEL             ....   36
 Basis Dimension        Dim             ....  239

ORBITAL ENERGIES
----------------

  NO   OCC          E(Eh)            E(eV)
   0   2.0000     -11.228346      -305.5388
   1   2.0000     -11.224935      -305.4460
   2   2.0000     -11.224375      -305.4308
   3   2.0000     -11.222862      -305.3896
   4   2.0000     -11.222678      -305.3846
   5   2.0000      -1.150393       -31.3038
   6   2.0000      -0.963365       -26.2145
   7   2.0000      -0.953851       -25.9556
   8   2.0000      -0.754421       -20.5288
   9   2.0000      -0.725892       -19.7525
  10   2.0000      -0.695317       -18.9205
  11   2.0000      -0.591384       -16.0924
  12   2.0000      -0.560619       -15.2552
  13   2.0000      -0.527872       -14.3641
  14   2.0000      -0.506596       -13.7852
  15   2.0000      -0.501581       -13.6487
  16   2.0000      -0.413393       -11.2490
  17   2.0000      -0.307471        -8.3667
  18   0.0000       0.118440         3.2229
  19   0.0000       0.153217         4.1692
  20   0.0000       0.183310         4.9881
  21   0.0000       0.191398         5.2082
  22   0.0000       0.206907         5.6302

MULLIKEN ATOMIC CHARGES
-----------------------
   0 C :   -0.171942
   1 C :   -0.103464
   2 C :   -0.103463
   3 C :   -0.171943
   4 C :    0.067152
   5 H :    0.089277
   6 H :    0.099636
   7 H :    0.099637
   8 H :    0.089277
   9 H :    0.052926
  10 H :    0.052907
Sum of atomic charges:    0.0000000

LOEWDIN ATOMIC CHARGES
----------------------
   0 C :    0.001600
   1 C :   -0.022188
   2 C :   -0.022189
   3 C :    0.001600
   4 C :   -0.017404
   5 H :   -0.001901
   6 H :    0.004442
   7 H :    0.004443
   8 H :   -0.001901
   9 H :    0.026755
  10 H :    0.026745

  Mayer bond orders larger than 0.100000
B(  0-C ,  1-C ) :   1.9298 B(  0-C ,  4-C ) :   0.9857 B(  0-C ,  5-H ) :   0.9820
B(  1-C ,  2-C ) :   1.0479 B(  1-C ,  6-H ) :   0.9758 B(  2-C ,  3-C ) :   1.9298
B(  2-C ,  7-H ) :   0.9758 B(  3-C ,  4-C ) :   0.9857 B(  3-C ,  8-H ) :   0.9820
B(  4-C ,  9-H ) :   0.9816 B(  4-C , 10-H ) :   0.9817

E(0)                                       ...   -192.863846635
E(0)                                       ...   -192.863846635
E(CORR)(strong-pairs)                      ...     -0.832407230
E(CORR)(weak-pairs)                        ...     -0.001883170
E(CORR)(corrected)                         ...     -0.834290400
E(TOT)                                     ...   -193.698137036
E(CCSD(T))                                 ...   -193.736950968
FINAL SINGLE POINT ENERGY      -193.736950967577
                             ****ORCA TERMINATED NORMALLY****
TOTAL RUN TIME: 0 days 0 hours 1 minutes 11 seconds 881 msec
