 Gaussian 16, Revision C.01,
 Gaussian 16:  AS64L-G16RevC.01  3-Jul-2019

 -------------------------
 # B3LYP/def2tzvp opt freq
 -------------------------

 ----------------
 Do1_crest_conf_1
 ----------------
 Symbolic Z-matrix:
 Charge =  0 Multiplicity = 1

 SCF Done:  E(RB3LYP) =  -116.666744480     A.U. after   12 cycles
 SCF Done:  E(RB3LYP) =  -116.667231389     A.U. after   10 cycles
 SCF Done:  E(RB3LYP) =  -116.667245431     A.U. after    7 cycles
 SCF Done:  E(RB3LYP) =  -116.667251081     A.U. after    7 cycles
 Optimization completed.
    -- Stationary point found.
 Normal termination of Gaussian 16 at Tue Sep  6 22:56:46 2022.

 --------------------------------------------------------------------
 #N Geom=AllCheck Guess=TCheck SCRF=Check GenChk RB3LYP/def2TZVP Freq
 --------------------------------------------------------------------

 Structure from the checkpoint file:  "/tmp/Gau-3073412.chk"
 ----------------
 Do1_crest_conf_1
 ----------------
 Charge =  0 Multiplicity = 1

                         Standard orientation:
 ---------------------------------------------------------------------
 Center     Atomic      Atomic             Coordinates (Angstroms)
 Number     Number       Type             X           Y           Z
 ---------------------------------------------------------------------
      1          6           0        0.499820    0.643422    0.000024
      2          6           0        0.499793   -0.643438   -0.000039
      3          6           0       -0.861236    0.000019    0.000014
      4          1           0        1.042016    1.571946    0.000088
      5          1           0        1.041928   -1.571997   -0.000120
      6          1           0       -1.457112    0.000036   -0.911535
      7          1           0       -1.457087   -0.000005    0.911577
 ---------------------------------------------------------------------

 SCF Done:  E(RB3LYP) =  -116.667251081     A.U. after    1 cycles

 The electronic state is 1-A.
 Alpha  occ. eigenvalues --  -10.18841 -10.18711 -10.18359  -0.87437  -0.60345
 Alpha  occ. eigenvalues --   -0.56778  -0.50909  -0.43975  -0.35464  -0.30034
 Alpha  occ. eigenvalues --   -0.25908
 Alpha virt. eigenvalues --   -0.00492   0.06593   0.07179   0.08410   0.11238
 Alpha virt. eigenvalues --    0.13707   0.13770   0.18018   0.19229   0.21391
 Alpha virt. eigenvalues --    0.23391   0.29852   0.30338   0.30739   0.33170

 Mulliken charges:
               1
     1  C   -0.116248
     2  C   -0.116237
     3  C   -0.246194
     4  H    0.147231
     5  H    0.147231
     6  H    0.092108
     7  H    0.092108
 Sum of Mulliken charges =  -0.00000

 Dipole moment (field-independent basis, Debye):
    X=              0.4832    Y=             -0.0001    Z=             -0.0000  Tot=              0.4832
 Quadrupole moment (field-independent basis, Debye-Ang):
   XX=            -18.7368   YY=            -16.9883   ZZ=            -19.5663
   XY=              0.0001   XZ=             -0.0000   YZ=              0.0003

  Exact polarizability:      37.297       0.000      35.626      -0.000       0.001      25.016
 Approx polarizability:      49.758       0.000      58.839      -0.000       0.001      34.819

                      1                      2                      3
                      A                      A                      A
 Frequencies --    601.2241               784.0372               868.7288
 Red. masses --      1.1243                 2.5772                 1.4252
 Frc consts  --      0.2394                 0.9334                 0.6337
 IR Inten    --     85.1591                15.6472                 0.0000

                      4                      5                      6
                      A                      A                      A
 Frequencies --    922.7551              1016.4404              1037.6867
 Red. masses --      1.1451                 1.0891                 1.5768
 Frc consts  --      0.5745                 0.6629                 1.0004
 IR Inten    --      4.5275                 0.0000                40.4291

                      7                      8                      9
                      A                      A                      A
 Frequencies --   1073.2255              1114.0281              1150.6002
 Red. masses --      1.3586                 1.2856                 4.3697
 Frc consts  --      0.9220                 0.9400                 3.4084
 IR Inten    --     21.6702                 1.8858                 0.3500

                     10                     11                     12
                      A                      A                      A
 Frequencies --   1525.0404              1734.4499              3041.4990
 Red. masses --      1.1134                 4.6569                 1.0466
 Frc consts  --      1.5256                 8.2540                 5.7044
 IR Inten    --      2.0986                16.9416                74.0866

                     13                     14                     15
                      A                      A                      A
 Frequencies --   3102.1811              3251.1325              3295.7065
 Red. masses --      1.1173                 1.0841                 1.1447
 Frc consts  --      6.3353                 6.7514                 7.3256
 IR Inten    --     43.7827                 0.1239                 0.0654

 - Thermochemistry -
 -------------------
 Temperature   298.150 Kelvin.  Pressure   1.00000 Atm.
 Atom     1 has atomic number  6 and mass  12.00000

 Molecular mass:    40.03130 amu.
 Principal axes and moments of inertia in atomic units:
                           1         2         3
     Eigenvalues --    59.25030  82.21273 129.50087
           X            1.00000   0.00001   0.00002
           Y           -0.00001   1.00000  -0.00006
           Z           -0.00002   0.00006   1.00000
 This molecule is an asymmetric top.
 Rotational symmetry number  1.
 Rotational temperatures (Kelvin)      1.46183     1.05353     0.66883
 Rotational constants (GHZ):          30.45961    21.95209    13.93613
 Zero-point vibrational energy     146654.6 (Joules/Mol)
                                   35.05129 (Kcal/Mol)
 Warning -- explicit consideration of   1 degrees of freedom as
           vibrations may cause significant error
 Vibrational temperatures:    865.03  1128.05  1249.91  1327.64  1462.43
          (Kelvin)           1493.00  1544.13  1602.84  1655.46  2194.19
                             2495.49  4376.04  4463.35  4677.65  4741.79

 Zero-point correction=                           0.055858 (Hartree/Particle)
 Thermal correction to Energy=                    0.059187
 Thermal correction to Enthalpy=                  0.060132
 Thermal correction to Gibbs Free Energy=         0.031920
 Sum of electronic and zero-point Energies=           -116.611393
 Sum of electronic and thermal Energies=              -116.608064
 Sum of electronic and thermal Enthalpies=            -116.607119
 Sum of electronic and thermal Free Energies=         -116.635331

                     E (Thermal)             CV                S
                      KCal/Mol        Cal/Mol-Kelvin    Cal/Mol-Kelvin
 Total                   37.141             10.292             59.377
 Electronic               0.000              0.000              0.000
 Translational            0.889              2.981             36.989
 Rotational               0.889              2.981             21.072
 Vibrational             35.363              4.330              1.316
 Vibration     1          0.959              1.029              0.448

 Optimization completed.
    -- Stationary point found.
 Normal termination of Gaussian 16 at Tue Sep  6 22:56:57 2022.
