                         Program Version 5.0.2 -  RELEASE  -
|  1> # Do1_crest_conf_1_DLPNO
|  2> %maxcore 16000
|  3> %pal nprocs 8 end
|  4> ! DLPNO-CCSD(T) def2-tzvpp def2-tzvpp/C
|  5> %scf maxiter 500
|  6> end
|  7> % mdci
|  8> Density None
|  9> end
| 10> % elprop
| 11> Dipole False
| 12> end
| 13> * xyz 0 1
| 14>  C   0.49982000   0.64342200   0.00002400
| 15>  C   0.49979300  -0.64343800  -0.00003900
| 16>  C  -0.86123600   0.00001900   0.00001400
| 17>  H   1.04201600   1.57194600   0.00008800
| 18>  H   1.04192800  -1.57199700  -0.00012000
| 19>  H  -1.45711200   0.00003600  -0.91153500
| 20>  H  -1.45708700  -0.00000500   0.91157700
| 21> **                         ****END OF INPUT****

CARTESIAN COORDINATES (ANGSTROEM)
---------------------------------
  C      0.499820    0.643422    0.000024
  C      0.499793   -0.643438   -0.000039
  C     -0.861236    0.000019    0.000014
  H      1.042016    1.571946    0.000088
  H      1.041928   -1.571997   -0.000120
  H     -1.457112    0.000036   -0.911535
  H     -1.457087   -0.000005    0.911577

 Total Charge           Charge          ....    0
 Multiplicity           Mult            ....    1
 Number of Electrons    NEL             ....   22
 Basis Dimension        Dim             ....  149

ORBITAL ENERGIES
----------------

  NO   OCC          E(Eh)            E(eV)
   0   2.0000     -11.242702      -305.9295
   1   2.0000     -11.240406      -305.8670
   2   2.0000     -11.237226      -305.7805
   3   2.0000      -1.158159       -31.5151
   4   2.0000      -0.824329       -22.4311
   5   2.0000      -0.766274       -20.8514
   6   2.0000      -0.681122       -18.5343
   7   2.0000      -0.596375       -16.2282
   8   2.0000      -0.494303       -13.4507
   9   2.0000      -0.420216       -11.4347
  10   2.0000      -0.358976        -9.7682
  11   0.0000       0.145179         3.9505
  12   0.0000       0.174269         4.7421
  13   0.0000       0.180814         4.9202
  14   0.0000       0.193772         5.2728
  15   0.0000       0.220092         5.9890

MULLIKEN ATOMIC CHARGES
-----------------------
   0 C :   -0.148217
   1 C :   -0.148211
   2 C :   -0.074560
   3 H :    0.148685
   4 H :    0.148687
   5 H :    0.036808
   6 H :    0.036808
Sum of atomic charges:   -0.0000000

LOEWDIN ATOMIC CHARGES
----------------------
   0 C :    0.039017
   1 C :    0.039020
   2 C :   -0.032539
   3 H :   -0.008351
   4 H :   -0.008351
   5 H :   -0.014398
   6 H :   -0.014399

  Mayer bond orders larger than 0.100000
B(  0-C ,  1-C ) :   1.9934 B(  0-C ,  2-C ) :   0.9418 B(  0-C ,  3-H ) :   0.9367
B(  1-C ,  2-C ) :   0.9418 B(  1-C ,  4-H ) :   0.9367 B(  2-C ,  5-H ) :   1.0216
B(  2-C ,  6-H ) :   1.0216

E(0)                                       ...   -115.869031527
E(0)                                       ...   -115.869031527
E(CORR)(strong-pairs)                      ...     -0.506383601
E(CORR)(weak-pairs)                        ...     -0.000735324
E(CORR)(corrected)                         ...     -0.507118925
E(TOT)                                     ...   -116.376150453
E(CCSD(T))                                 ...   -116.398796904
FINAL SINGLE POINT ENERGY      -116.398796903968
                             ****ORCA TERMINATED NORMALLY****
TOTAL RUN TIME: 0 days 0 hours 0 minutes 21 seconds 235 msec
