 Gaussian 16, Revision C.01,
 Gaussian 16:  AS64L-G16RevC.01  3-Jul-2019

 -------------------------
 # B3LYP/def2tzvp opt freq
 -------------------------

 ----------------
 Do3_crest_conf_1
 ----------------
 Symbolic Z-matrix:
 Charge =  0 Multiplicity = 1

 SCF Done:  E(RB3LYP) =  -195.401297172     A.U. after   11 cycles
 SCF Done:  E(RB3LYP) =  -195.401919576     A.U. after    9 cycles
 SCF Done:  E(RB3LYP) =  -195.401944567     A.U. after    7 cycles
 SCF Done:  E(RB3LYP) =  -195.401950410     A.U. after    7 cycles
 SCF Done:  E(RB3LYP) =  -195.401951559     A.U. after    6 cycles
 SCF Done:  E(RB3LYP) =  -195.401952129     A.U. after    7 cycles
 Optimization completed.
    -- Stationary point found.
 Normal termination of Gaussian 16 at Tue Sep  6 22:57:29 2022.

 --------------------------------------------------------------------
 #N Geom=AllCheck Guess=TCheck SCRF=Check GenChk RB3LYP/def2TZVP Freq
 --------------------------------------------------------------------

 Structure from the checkpoint file:  "/tmp/Gau-2849799.chk"
 ----------------
 Do3_crest_conf_1
 ----------------
 Charge =  0 Multiplicity = 1

                         Standard orientation:
 ---------------------------------------------------------------------
 Center     Atomic      Atomic             Coordinates (Angstroms)
 Number     Number       Type             X           Y           Z
 ---------------------------------------------------------------------
      1          6           0       -0.664589    1.073030   -0.043859
      2          6           0        0.664626    1.073006   -0.043874
      3          6           0        1.233687   -0.316483    0.096165
      4          6           0       -0.000020   -1.226267   -0.125811
      5          6           0       -1.233699   -0.316443    0.096158
      6          1           0       -1.284828    1.959013   -0.097286
      7          1           0        1.284897    1.958965   -0.097307
      8          1           0        2.035586   -0.520934   -0.617805
      9          1           0        1.668529   -0.453267    1.093578
     10          1           0       -0.000037   -2.100473    0.525333
     11          1           0       -0.000025   -1.590276   -1.154939
     12          1           0       -2.035602   -0.520865   -0.617819
     13          1           0       -1.668550   -0.453219    1.093567
 ---------------------------------------------------------------------

 SCF Done:  E(RB3LYP) =  -195.401952129     A.U. after    1 cycles

 The electronic state is 1-A.
 Alpha  occ. eigenvalues --  -10.16776 -10.16776 -10.16578 -10.16363 -10.16273
 Alpha  occ. eigenvalues --   -0.84040  -0.70791  -0.70498  -0.57448  -0.52850
 Alpha  occ. eigenvalues --   -0.49835  -0.46817  -0.39956  -0.38111  -0.35072
 Alpha  occ. eigenvalues --   -0.34878  -0.34475  -0.34173  -0.24374
 Alpha virt. eigenvalues --    0.01504   0.03692   0.07296   0.07388   0.07908
 Alpha virt. eigenvalues --    0.09561   0.10655   0.12247   0.13569   0.16165
 Alpha virt. eigenvalues --    0.16703   0.18371   0.19721   0.21025   0.23218

 Mulliken charges:
               1
     1  C   -0.146973
     2  C   -0.146971
     3  C   -0.131124
     4  C   -0.195022
     5  C   -0.131123
     6  H    0.104832
     7  H    0.104832
     8  H    0.092325
     9  H    0.086341
    10  H    0.095243
    11  H    0.088974
    12  H    0.092326
    13  H    0.086340
 Sum of Mulliken charges =  -0.00000

 Dipole moment (field-independent basis, Debye):
    X=             -0.0000    Y=             -0.2049    Z=              0.0774  Tot=              0.2190
 Quadrupole moment (field-independent basis, Debye-Ang):
   XX=            -31.0349   YY=            -31.6978   ZZ=            -32.8470
   XY=              0.0000   XZ=             -0.0000   YZ=             -0.0994

  Exact polarizability:      66.836      -0.000      57.989      -0.000      -0.626      44.850
 Approx polarizability:     100.638      -0.000      76.387      -0.000      -1.134      67.582

                      1                      2                      3
                      A                      A                      A
 Frequencies --    137.4061               394.8311               620.0305
 Red. masses --      1.5872                 2.0227                 1.5700
 Frc consts  --      0.0177                 0.1858                 0.3556
 IR Inten    --      0.1837                 0.0475                12.7868

                      4                      5                      6
                      A                      A                      A
 Frequencies --    715.4074               786.2484               820.1082
 Red. masses --      1.4116                 5.3858                 1.6007
 Frc consts  --      0.4257                 1.9617                 0.6343
 IR Inten    --     34.8034                 0.3258                 1.1056

                      7                      8                      9
                      A                      A                      A
 Frequencies --    892.0871               903.4242               918.0551
 Red. masses --      1.6279                 3.1075                 1.6737
 Frc consts  --      0.7633                 1.4943                 0.8311
 IR Inten    --      4.3295                 0.5150                 6.6362

                     10                     11                     12
                      A                      A                      A
 Frequencies --    974.1819               974.8719              1036.0184
 Red. masses --      2.6256                 1.2575                 2.0323
 Frc consts  --      1.4681                 0.7041                 1.2852
 IR Inten    --      1.0368                 0.0576                 2.1473

                     13                     14                     15
                      A                      A                      A
 Frequencies --   1071.7999              1132.4923              1155.6339
 Red. masses --      1.7285                 1.0912                 1.1986
 Frc consts  --      1.1699                 0.8245                 0.9431
 IR Inten    --      8.1099                 0.1020                 1.3990

                     16                     17                     18
                      A                      A                      A
 Frequencies --   1226.5619              1232.6867              1312.8063
 Red. masses --      1.3594                 1.2118                 1.2901
 Frc consts  --      1.2050                 1.0849                 1.3100
 IR Inten    --      0.0178                 1.6641                 2.1673

                     19                     20                     21
                      A                      A                      A
 Frequencies --   1321.5106              1329.4715              1383.6927
 Red. masses --      1.2593                 1.6577                 1.6570
 Frc consts  --      1.2957                 1.7263                 1.8692
 IR Inten    --      0.0552                 0.8937                 1.7151

                     22                     23                     24
                      A                      A                      A
 Frequencies --   1485.9545              1490.8692              1509.6355
 Red. masses --      1.0852                 1.0839                 1.1034
 Frc consts  --      1.4118                 1.4194                 1.4816
 IR Inten    --      1.2371                 2.3902                 2.3867

                     25                     26                     27
                      A                      A                      A
 Frequencies --   1678.7177              2999.7194              3001.5643
 Red. masses --      5.8560                 1.0726                 1.0704
 Frc consts  --      9.7231                 5.6868                 5.6818
 IR Inten    --      2.8021                29.6583                53.1016

                     28                     29                     30
                      A                      A                      A
 Frequencies --   3038.6413              3046.6730              3058.8831
 Red. masses --      1.0797                 1.0905                 1.0721
 Frc consts  --      5.8736                 5.9640                 5.9105
 IR Inten    --      3.6844                36.7274                53.4427

                     31                     32                     33
                      A                      A                      A
 Frequencies --   3093.3703              3171.6273              3195.5113
 Red. masses --      1.1035                 1.0850                 1.1027
 Frc consts  --      6.2216                 6.4304                 6.6340
 IR Inten    --     40.0592                 7.4150                21.4037

 - Thermochemistry -
 -------------------
 Temperature   298.150 Kelvin.  Pressure   1.00000 Atm.
 Atom     1 has atomic number  6 and mass  12.00000

 Molecular mass:    68.06260 amu.
 Principal axes and moments of inertia in atomic units:
                           1         2         3
     Eigenvalues --   246.43614 248.90109 457.63229
           X            1.00000  -0.00002   0.00000
           Y            0.00002   1.00000   0.00002
           Z           -0.00000  -0.00002   1.00000
 This molecule is an asymmetric top.
 Rotational symmetry number  1.
 Rotational temperatures (Kelvin)      0.35147     0.34799     0.18927
 Rotational constants (GHZ):           7.32336     7.25084     3.94365
 Zero-point vibrational energy     305708.6 (Joules/Mol)
                                   73.06612 (Kcal/Mol)
 Warning -- explicit consideration of   3 degrees of freedom as
           vibrations may cause significant error
 Vibrational temperatures:    197.70   568.07   892.09  1029.31  1131.24
          (Kelvin)           1179.95  1283.51  1299.83  1320.88  1401.63
                             1402.62  1490.60  1542.08  1629.40  1662.70
                             1764.75  1773.56  1888.84  1901.36  1912.81
                             1990.83  2137.96  2145.03  2172.03  2415.30
                             4315.93  4318.58  4371.93  4383.48  4401.05
                             4450.67  4563.26  4597.63

 Zero-point correction=                           0.116438 (Hartree/Particle)
 Thermal correction to Energy=                    0.121090
 Thermal correction to Enthalpy=                  0.122034
 Thermal correction to Gibbs Free Energy=         0.089044
 Sum of electronic and zero-point Energies=           -195.285514
 Sum of electronic and thermal Energies=              -195.280862
 Sum of electronic and thermal Enthalpies=            -195.279918
 Sum of electronic and thermal Free Energies=         -195.312908

                     E (Thermal)             CV                S
                      KCal/Mol        Cal/Mol-Kelvin    Cal/Mol-Kelvin
 Total                   75.985             17.036             69.434
 Electronic               0.000              0.000              0.000
 Translational            0.889              2.981             38.571
 Rotational               0.889              2.981             24.843
 Vibrational             74.208             11.074              6.020
 Vibration     1          0.614              1.916              2.840
 Vibration     2          0.762              1.481              0.982
 Vibration     3          0.980              0.990              0.416

 Optimization completed.
    -- Stationary point found.
 Normal termination of Gaussian 16 at Tue Sep  6 22:58:26 2022.
