 Gaussian 16, Revision C.01,
 Gaussian 16:  AS64L-G16RevC.01  3-Jul-2019

 -------------------------
 # B3LYP/def2tzvp opt freq
 -------------------------

 ---------------
 P1_crest_conf_1
 ---------------
 Symbolic Z-matrix:
 Charge =  0 Multiplicity = 1

 SCF Done:  E(RB3LYP) =  -310.894691019     A.U. after   13 cycles
 SCF Done:  E(RB3LYP) =  -310.896083314     A.U. after   11 cycles
 SCF Done:  E(RB3LYP) =  -310.896537644     A.U. after   10 cycles
 SCF Done:  E(RB3LYP) =  -310.896567412     A.U. after    8 cycles
 SCF Done:  E(RB3LYP) =  -310.896571827     A.U. after    7 cycles
 SCF Done:  E(RB3LYP) =  -310.896572176     A.U. after    6 cycles
 Optimization completed.
    -- Stationary point found.
 Normal termination of Gaussian 16 at Tue Sep  6 23:00:02 2022.

 --------------------------------------------------------------------
 #N Geom=AllCheck Guess=TCheck SCRF=Check GenChk RB3LYP/def2TZVP Freq
 --------------------------------------------------------------------

 Structure from the checkpoint file:  "/tmp/Gau-3075806.chk"
 ---------------
 P1_crest_conf_1
 ---------------
 Charge =  0 Multiplicity = 1

                         Standard orientation:
 ---------------------------------------------------------------------
 Center     Atomic      Atomic             Coordinates (Angstroms)
 Number     Number       Type             X           Y           Z
 ---------------------------------------------------------------------
      1          6           0        1.057702   -0.392859    0.755389
      2          6           0       -0.462809   -0.312348    1.122922
      3          6           0       -1.019790    1.024011    0.667328
      4          6           0       -1.019791    1.024007   -0.667331
      5          6           0       -0.462810   -0.312353   -1.122920
      6          6           0       -1.034260   -1.221124    0.000003
      7          6           0        1.057703   -0.392862   -0.755388
      8          6           0        1.741629    0.712596   -0.000002
      9          1           0        1.660116   -1.090370    1.322264
     10          1           0       -0.676014   -0.593987    2.151869
     11          1           0       -1.264262    1.850856    1.320041
     12          1           0       -1.264265    1.850849   -1.320048
     13          1           0       -0.676015   -0.593996   -2.151866
     14          1           0       -2.124032   -1.282395    0.000004
     15          1           0       -0.600137   -2.223190    0.000005
     16          1           0        1.660112   -1.090376   -1.322264
     17          1           0        1.314313    1.705826   -0.000004
     18          1           0        2.824743    0.692374   -0.000002
 ---------------------------------------------------------------------

 SCF Done:  E(RB3LYP) =  -310.896572176     A.U. after    1 cycles

 The electronic state is 1-A.
 Alpha  occ. eigenvalues --  -10.18097 -10.18096 -10.17288 -10.17261 -10.16694
 Alpha  occ. eigenvalues --  -10.16629 -10.16534 -10.16445  -0.90324  -0.81052
 Alpha  occ. eigenvalues --   -0.71449  -0.71006  -0.60500  -0.57032  -0.55755
 Alpha  occ. eigenvalues --   -0.52561  -0.50659  -0.48379  -0.46366  -0.40916
 Alpha  occ. eigenvalues --   -0.38247  -0.37892  -0.36057  -0.33899  -0.33549
 Alpha  occ. eigenvalues --   -0.33121  -0.28756  -0.26763  -0.24580
 Alpha virt. eigenvalues --    0.00193   0.03827   0.06482   0.07311   0.07315
 Alpha virt. eigenvalues --    0.09374   0.09786   0.09971   0.10913   0.11548
 Alpha virt. eigenvalues --    0.11939   0.12998   0.15092   0.15970   0.16380

 Mulliken charges:
               1
     1  C   -0.147102
     2  C    0.078848
     3  C   -0.203072
     4  C   -0.203071
     5  C    0.078848
     6  C   -0.190906
     7  C   -0.147102
     8  C   -0.192671
     9  H    0.090183
    10  H    0.086300
    11  H    0.102372
    12  H    0.102372
    13  H    0.086300
    14  H    0.085272
    15  H    0.081064
    16  H    0.090183
    17  H    0.103109
    18  H    0.099072
 Sum of Mulliken charges =  -0.00000

 Dipole moment (field-independent basis, Debye):
    X=              0.2015    Y=             -0.2688    Z=             -0.0000  Tot=              0.3359
 Quadrupole moment (field-independent basis, Debye-Ang):
   XX=            -49.8547   YY=            -48.0583   ZZ=            -48.0454
   XY=             -1.1220   XZ=              0.0000   YZ=              0.0000

  Exact polarizability:      83.794      -0.191      79.684       0.000       0.000      81.696
 Approx polarizability:     117.803      -0.572     118.439       0.000       0.000     138.691

                      1                      2                      3
                      A                      A                      A
 Frequencies --    304.0281               344.4590               478.4699
 Red. masses --      2.8839                 2.5986                 1.7802
 Frc consts  --      0.1571                 0.1817                 0.2401
 IR Inten    --      0.0136                 1.9313                 4.4463

                      4                      5                      6
                      A                      A                      A
 Frequencies --    515.9132               537.4680               666.0691
 Red. masses --      2.9666                 2.4928                 3.3721
 Frc consts  --      0.4652                 0.4243                 0.8814
 IR Inten    --      0.0133                 0.9123                 7.4242

                      7                      8                      9
                      A                      A                      A
 Frequencies --    733.6674               735.6353               763.0969
 Red. masses --      2.0725                 2.5245                 2.9585
 Frc consts  --      0.6573                 0.8049                 1.0150
 IR Inten    --     13.6108                 8.6725                17.6130

                     10                     11                     12
                      A                      A                      A
 Frequencies --    801.1275               811.7309               863.7297
 Red. masses --      1.3989                 4.6740                 2.3857
 Frc consts  --      0.5290                 1.8145                 1.0486
 IR Inten    --     10.7614                 0.0310                16.3290

                     13                     14                     15
                      A                      A                      A
 Frequencies --    888.3596               901.9299               917.6197
 Red. masses --      1.8376                 2.8612                 2.4098
 Frc consts  --      0.8544                 1.3713                 1.1955
 IR Inten    --      0.1548                 3.3478                 0.1759

                     16                     17                     18
                      A                      A                      A
 Frequencies --    944.0531               961.2520               972.7503
 Red. masses --      1.5787                 2.4595                 1.4804
 Frc consts  --      0.8290                 1.3390                 0.8254
 IR Inten    --      2.7693                 0.4093                 0.7382

                     19                     20                     21
                      A                      A                      A
 Frequencies --    986.4586              1040.7730              1067.8117
 Red. masses --      2.2820                 1.6076                 1.2614
 Frc consts  --      1.3084                 1.0260                 0.8474
 IR Inten    --      8.0129                 1.4541                 0.4040

                     22                     23                     24
                      A                      A                      A
 Frequencies --   1068.1397              1082.4807              1100.7397
 Red. masses --      1.7149                 1.2051                 1.3250
 Frc consts  --      1.1528                 0.8320                 0.9459
 IR Inten    --      0.0005                 7.2249                 0.7843

                     25                     26                     27
                      A                      A                      A
 Frequencies --   1123.6281              1138.5807              1170.9206
 Red. masses --      1.2683                 1.0745                 1.7656
 Frc consts  --      0.9435                 0.8207                 1.4262
 IR Inten    --      0.3232                 0.8238                 1.0365

                     28                     29                     30
                      A                      A                      A
 Frequencies --   1184.3132              1236.8694              1273.3311
 Red. masses --      2.0665                 1.4394                 1.6737
 Frc consts  --      1.7077                 1.2974                 1.5988
 IR Inten    --      0.1711                 1.3799                 3.8705

                     31                     32                     33
                      A                      A                      A
 Frequencies --   1276.3638              1283.4963              1296.6430
 Red. masses --      1.3758                 1.4769                 1.2905
 Frc consts  --      1.3206                 1.4335                 1.2783
 IR Inten    --      0.5545                 5.1307                 0.0663

                     34                     35                     36
                      A                      A                      A
 Frequencies --   1362.1660              1365.9561              1479.0250
 Red. masses --      1.7831                 1.7100                 1.2284
 Frc consts  --      1.9493                 1.8798                 1.5832
 IR Inten    --      1.3978                12.1670                 4.4239

                     37                     38                     39
                      A                      A                      A
 Frequencies --   1499.9039              1632.5240              3042.4307
 Red. masses --      1.1164                 5.6423                 1.0573
 Frc consts  --      1.4797                 8.8598                 5.7661
 IR Inten    --      3.2681                 1.7992                47.4248

                     40                     41                     42
                      A                      A                      A
 Frequencies --   3094.1762              3107.5836              3110.1223
 Red. masses --      1.1079                 1.0873                 1.0894
 Frc consts  --      6.2495                 6.1867                 6.2085
 IR Inten    --     39.1043                56.8383                12.2326

                     43                     44                     45
                      A                      A                      A
 Frequencies --   3125.8230              3161.0785              3169.9218
 Red. masses --      1.0544                 1.0886                 1.0941
 Frc consts  --      6.0702                 6.4092                 6.4773
 IR Inten    --     23.6298                18.4960                16.3813

                     46                     47                     48
                      A                      A                      A
 Frequencies --   3187.5977              3205.6415              3211.2765
 Red. masses --      1.0861                 1.1136                 1.1050
 Frc consts  --      6.5022                 6.7426                 6.7141
 IR Inten    --      8.3456                 8.1918                13.7989

 - Thermochemistry -
 -------------------
 Temperature   298.150 Kelvin.  Pressure   1.00000 Atm.
 Atom     1 has atomic number  6 and mass  12.00000

 Molecular mass:   106.07825 amu.
 Principal axes and moments of inertia in atomic units:
                           1         2         3
     Eigenvalues --   522.32459 719.90578 735.02963
           X            0.99991   0.01350  -0.00000
           Y           -0.01350   0.99991  -0.00000
           Z            0.00000   0.00000   1.00000
 This molecule is an asymmetric top.
 Rotational symmetry number  1.
 Warning -- assumption of classical behavior for rotation
           may cause significant error
 Rotational temperatures (Kelvin)      0.16582     0.12031     0.11784
 Rotational constants (GHZ):           3.45521     2.50691     2.45533
 Zero-point vibrational energy     414070.2 (Joules/Mol)
                                   98.96516 (Kcal/Mol)
 Warning -- explicit consideration of   5 degrees of freedom as
           vibrations may cause significant error
 Vibrational temperatures:    437.43   495.60   688.41   742.28   773.30
          (Kelvin)            958.32  1055.58  1058.42  1097.93  1152.64
                             1167.90  1242.71  1278.15  1297.68  1320.25
                             1358.28  1383.03  1399.57  1419.29  1497.44
                             1536.34  1536.81  1557.45  1583.72  1616.65
                             1638.16  1684.69  1703.96  1779.58  1832.04
                             1836.40  1846.66  1865.58  1959.85  1965.31
                             2127.99  2158.03  2348.84  4377.38  4451.83
                             4471.12  4474.77  4497.36  4548.09  4560.81
                             4586.24  4612.20  4620.31

 Zero-point correction=                           0.157711 (Hartree/Particle)
 Thermal correction to Energy=                    0.163250
 Thermal correction to Enthalpy=                  0.164194
 Thermal correction to Gibbs Free Energy=         0.128649
 Sum of electronic and zero-point Energies=           -310.738861
 Sum of electronic and thermal Energies=              -310.733322
 Sum of electronic and thermal Enthalpies=            -310.732378
 Sum of electronic and thermal Free Energies=         -310.767923

                     E (Thermal)             CV                S
                      KCal/Mol        Cal/Mol-Kelvin    Cal/Mol-Kelvin
 Total                  102.441             24.746             74.811
 Electronic               0.000              0.000              0.000
 Translational            0.889              2.981             39.894
 Rotational               0.889              2.981             27.116
 Vibrational            100.663             18.784              7.802
 Vibration     1          0.695              1.666              1.395
 Vibration     2          0.723              1.587              1.191
 Vibration     3          0.835              1.298              0.714
 Vibration     4          0.871              1.215              0.620
 Vibration     5          0.892              1.167              0.571

 Optimization completed.
    -- Stationary point found.
 Normal termination of Gaussian 16 at Tue Sep  6 23:03:20 2022.
