                         Program Version 5.0.2 -  RELEASE  -
|  1> # P2_crest_conf_1_DLPNO
|  2> %maxcore 16000
|  3> %pal nprocs 8 end
|  4> ! DLPNO-CCSD(T) def2-tzvpp def2-tzvpp/C
|  5> %scf maxiter 500
|  6> end
|  7> % mdci
|  8> Density None
|  9> end
| 10> % elprop
| 11> Dipole False
| 12> end
| 13> * xyz 0 1
| 14>  C  -0.62164900   0.78070800  -0.71703000
| 15>  C  -0.62165400  -0.78077400  -0.71695700
| 16>  C   0.82596000  -1.13089700  -0.22906200
| 17>  C   0.98032700  -0.66716700   1.20770300
| 18>  C   0.98033100   0.66728900   1.20763300
| 19>  C   0.82596900   1.13086900  -0.22918100
| 20>  C   1.60077500  -0.00005600  -0.95327000
| 21>  C  -1.82142300  -0.77725400   0.26904700
| 22>  C  -1.82140500   0.77728700   0.26899300
| 23>  H  -0.82060500   1.26131300  -1.67539400
| 24>  H  -0.82060000  -1.26146900  -1.67527800
| 25>  H   1.13554000  -2.15445400  -0.43379400
| 26>  H   0.99625300  -1.31713400   2.07174100
| 27>  H   0.99625800   1.31734800   2.07160300
| 28>  H   1.13555700   2.15440200  -0.43401900
| 29>  H   2.66717000  -0.00004900  -0.72610000
| 30>  H   1.45342300  -0.00011400  -2.03626600
| 31>  H  -1.62509500  -1.23724800   1.23782100
| 32>  H  -2.72813300  -1.22108500  -0.14261700
| 33>  H  -2.72811100   1.22111400  -0.14268200
| 34>  H  -1.62504300   1.23734000   1.23773100
| 35> **                         ****END OF INPUT****

CARTESIAN COORDINATES (ANGSTROEM)
---------------------------------
  C     -0.621649    0.780708   -0.717030
  C     -0.621654   -0.780774   -0.716957
  C      0.825960   -1.130897   -0.229062
  C      0.980327   -0.667167    1.207703
  C      0.980331    0.667289    1.207633
  C      0.825969    1.130869   -0.229181
  C      1.600775   -0.000056   -0.953270
  C     -1.821423   -0.777254    0.269047
  C     -1.821405    0.777287    0.268993
  H     -0.820605    1.261313   -1.675394
  H     -0.820600   -1.261469   -1.675278
  H      1.135540   -2.154454   -0.433794
  H      0.996253   -1.317134    2.071741
  H      0.996258    1.317348    2.071603
  H      1.135557    2.154402   -0.434019
  H      2.667170   -0.000049   -0.726100
  H      1.453423   -0.000114   -2.036266
  H     -1.625095   -1.237248    1.237821
  H     -2.728133   -1.221085   -0.142617
  H     -2.728111    1.221114   -0.142682
  H     -1.625043    1.237340    1.237731

 Total Charge           Charge          ....    0
 Multiplicity           Mult            ....    1
 Number of Electrons    NEL             ....   66
 Basis Dimension        Dim             ....  447

ORBITAL ENERGIES
----------------

  NO   OCC          E(Eh)            E(eV)
   0   2.0000     -11.225381      -305.4581
   1   2.0000     -11.225378      -305.4581
   2   2.0000     -11.216883      -305.2269
   3   2.0000     -11.216783      -305.2242
   4   2.0000     -11.216235      -305.2093
   5   2.0000     -11.215878      -305.1996
   6   2.0000     -11.215159      -305.1800
   7   2.0000     -11.209590      -305.0285
   8   2.0000     -11.209048      -305.0137
   9   2.0000      -1.183601       -32.2074
  10   2.0000      -1.079418       -29.3725
  11   2.0000      -0.974562       -26.5192
  12   2.0000      -0.970798       -26.4168
  13   2.0000      -0.877189       -23.8695
  14   2.0000      -0.854116       -23.2417
  15   2.0000      -0.764188       -20.7946
  16   2.0000      -0.749659       -20.3993
  17   2.0000      -0.696623       -18.9561
  18   2.0000      -0.669762       -18.2251
  19   2.0000      -0.644436       -17.5360
  20   2.0000      -0.635306       -17.2876
  21   2.0000      -0.574193       -15.6246
  22   2.0000      -0.540182       -14.6991
  23   2.0000      -0.539478       -14.6799
  24   2.0000      -0.514182       -13.9916
  25   2.0000      -0.493093       -13.4177
  26   2.0000      -0.481059       -13.0903
  27   2.0000      -0.469855       -12.7854
  28   2.0000      -0.452668       -12.3177
  29   2.0000      -0.426833       -11.6147
  30   2.0000      -0.411459       -11.1964
  31   2.0000      -0.407987       -11.1019
  32   2.0000      -0.336467        -9.1557
  33   0.0000       0.141297         3.8449
  34   0.0000       0.146078         3.9750
  35   0.0000       0.160038         4.3548
  36   0.0000       0.171171         4.6578
  37   0.0000       0.171550         4.6681

MULLIKEN ATOMIC CHARGES
-----------------------
   0 C :   -0.072254
   1 C :   -0.072254
   2 C :    0.180394
   3 C :   -0.257950
   4 C :   -0.257948
   5 C :    0.180392
   6 C :   -0.238484
   7 C :   -0.150973
   8 C :   -0.150972
   9 H :    0.056130
  10 H :    0.056129
  11 H :    0.092630
  12 H :    0.094650
  13 H :    0.094651
  14 H :    0.092630
  15 H :    0.057453
  16 H :    0.056045
  17 H :    0.057125
  18 H :    0.062741
  19 H :    0.062740
  20 H :    0.057126
Sum of atomic charges:   -0.0000000

LOEWDIN ATOMIC CHARGES
----------------------
   0 C :   -0.013469
   1 C :   -0.013470
   2 C :   -0.036989
   3 C :    0.008236
   4 C :    0.008237
   5 C :   -0.036989
   6 C :    0.024699
   7 C :    0.016573
   8 C :    0.016575
   9 H :    0.001304
  10 H :    0.001304
  11 H :    0.003827
  12 H :   -0.002335
  13 H :   -0.002335
  14 H :    0.003827
  15 H :    0.009794
  16 H :    0.010831
  17 H :    0.001319
  18 H :   -0.001128
  19 H :   -0.001129
  20 H :    0.001319

  Mayer bond orders larger than 0.100000
B(  0-C ,  1-C ) :   0.9328 B(  0-C ,  5-C ) :   0.9365 B(  0-C ,  8-C ) :   0.9366
B(  0-C ,  9-H ) :   1.0192 B(  1-C ,  2-C ) :   0.9365 B(  1-C ,  7-C ) :   0.9366
B(  1-C , 10-H ) :   1.0192 B(  2-C ,  3-C ) :   0.9292 B(  2-C ,  6-C ) :   0.9547
B(  2-C , 11-H ) :   0.9789 B(  3-C ,  4-C ) :   1.9854 B(  3-C , 12-H ) :   0.9877
B(  4-C ,  5-C ) :   0.9292 B(  4-C , 13-H ) :   0.9877 B(  5-C ,  6-C ) :   0.9547
B(  5-C , 14-H ) :   0.9789 B(  6-C , 15-H ) :   1.0115 B(  6-C , 16-H ) :   1.0314
B(  7-C ,  8-C ) :   0.9308 B(  7-C , 17-H ) :   1.0343 B(  7-C , 18-H ) :   1.0297
B(  8-C , 19-H ) :   1.0297 B(  8-C , 20-H ) :   1.0343

E(0)                                       ...   -347.846736631
E(0)                                       ...   -347.846736631
E(CORR)(strong-pairs)                      ...     -1.544308090
E(CORR)(weak-pairs)                        ...     -0.006580921
E(CORR)(corrected)                         ...     -1.550889011
E(TOT)                                     ...   -349.397625641
E(CCSD(T))                                 ...   -349.467332124
FINAL SINGLE POINT ENERGY      -349.467332123632
                             ****ORCA TERMINATED NORMALLY****
TOTAL RUN TIME: 0 days 0 hours 7 minutes 47 seconds 874 msec
