                         Program Version 5.0.2 -  RELEASE  -
|  1> # P3_crest_conf_2_DLPNO
|  2> %maxcore 16000
|  3> %pal nprocs 8 end
|  4> ! DLPNO-CCSD(T) def2-tzvpp def2-tzvpp/C
|  5> %scf maxiter 500
|  6> end
|  7> % mdci
|  8> Density None
|  9> end
| 10> % elprop
| 11> Dipole False
| 12> end
| 13> * xyz 0 1
| 14>  C  -0.32390500   0.78543500  -0.69470100
| 15>  C   1.13070800   1.12875900  -0.22150800
| 16>  C   1.28133200   0.66709700   1.21672800
| 17>  C   1.28137300  -0.66713400   1.21669900
| 18>  C   1.13072900  -1.12874100  -0.22155200
| 19>  C   1.90730900   0.00003000  -0.94191300
| 20>  C  -0.32389600  -0.78541800  -0.69471600
| 21>  C  -1.52556200  -1.21140100   0.16644200
| 22>  C  -2.47318800  -0.00001500   0.12719900
| 23>  C  -1.52558300   1.21138700   0.16645600
| 24>  H  -0.44844400   1.16248400  -1.71227200
| 25>  H   1.44008100   2.15220900  -0.42788000
| 26>  H   1.29189600   1.31628100   2.08146200
| 27>  H   1.29196900  -1.31635500   2.08140500
| 28>  H   1.44011400  -2.15217800  -0.42796600
| 29>  H   2.97296800   0.00003500  -0.71038600
| 30>  H   1.76537500   0.00004800  -2.02543100
| 31>  H  -0.44844100  -1.16244600  -1.71229500
| 32>  H  -1.99788800  -2.12686800  -0.19463300
| 33>  H  -1.21308500  -1.39220400   1.19754900
| 34>  H  -3.03921700  -0.00001300  -0.80957000
| 35>  H  -3.20019100  -0.00002500   0.94225600
| 36>  H  -1.21311300   1.39218500   1.19756500
| 37>  H  -1.99792400   2.12685100  -0.19460900
| 38> **                         ****END OF INPUT****

CARTESIAN COORDINATES (ANGSTROEM)
---------------------------------
  C     -0.323905    0.785435   -0.694701
  C      1.130708    1.128759   -0.221508
  C      1.281332    0.667097    1.216728
  C      1.281373   -0.667134    1.216699
  C      1.130729   -1.128741   -0.221552
  C      1.907309    0.000030   -0.941913
  C     -0.323896   -0.785418   -0.694716
  C     -1.525562   -1.211401    0.166442
  C     -2.473188   -0.000015    0.127199
  C     -1.525583    1.211387    0.166456
  H     -0.448444    1.162484   -1.712272
  H      1.440081    2.152209   -0.427880
  H      1.291896    1.316281    2.081462
  H      1.291969   -1.316355    2.081405
  H      1.440114   -2.152178   -0.427966
  H      2.972968    0.000035   -0.710386
  H      1.765375    0.000048   -2.025431
  H     -0.448441   -1.162446   -1.712295
  H     -1.997888   -2.126868   -0.194633
  H     -1.213085   -1.392204    1.197549
  H     -3.039217   -0.000013   -0.809570
  H     -3.200191   -0.000025    0.942256
  H     -1.213113    1.392185    1.197565
  H     -1.997924    2.126851   -0.194609

 Total Charge           Charge          ....    0
 Multiplicity           Mult            ....    1
 Number of Electrons    NEL             ....   74
 Basis Dimension        Dim             ....  506

ORBITAL ENERGIES
----------------

  NO   OCC          E(Eh)            E(eV)
   0   2.0000     -11.223825      -305.4158
   1   2.0000     -11.223822      -305.4157
   2   2.0000     -11.216264      -305.2101
   3   2.0000     -11.216064      -305.2046
   4   2.0000     -11.215725      -305.1954
   5   2.0000     -11.214341      -305.1577
   6   2.0000     -11.214097      -305.1511
   7   2.0000     -11.209907      -305.0371
   8   2.0000     -11.206873      -304.9545
   9   2.0000     -11.206804      -304.9526
  10   2.0000      -1.179013       -32.0826
  11   2.0000      -1.086939       -29.5771
  12   2.0000      -0.989478       -26.9251
  13   2.0000      -0.983387       -26.7593
  14   2.0000      -0.920479       -25.0475
  15   2.0000      -0.909101       -24.7379
  16   2.0000      -0.777828       -21.1658
  17   2.0000      -0.764322       -20.7983
  18   2.0000      -0.761085       -20.7102
  19   2.0000      -0.694446       -18.8968
  20   2.0000      -0.680094       -18.5063
  21   2.0000      -0.647686       -17.6244
  22   2.0000      -0.637665       -17.3518
  23   2.0000      -0.573807       -15.6141
  24   2.0000      -0.567557       -15.4440
  25   2.0000      -0.545610       -14.8468
  26   2.0000      -0.538833       -14.6624
  27   2.0000      -0.504904       -13.7391
  28   2.0000      -0.485497       -13.2110
  29   2.0000      -0.481714       -13.1081
  30   2.0000      -0.467625       -12.7247
  31   2.0000      -0.460397       -12.5280
  32   2.0000      -0.441030       -12.0010
  33   2.0000      -0.438235       -11.9250
  34   2.0000      -0.431472       -11.7410
  35   2.0000      -0.417771       -11.3681
  36   2.0000      -0.335847        -9.1389
  37   0.0000       0.135678         3.6920
  38   0.0000       0.147549         4.0150
  39   0.0000       0.156445         4.2571
  40   0.0000       0.162440         4.4202
  41   0.0000       0.171906         4.6778

MULLIKEN ATOMIC CHARGES
-----------------------
   0 C :   -0.063367
   1 C :    0.183258
   2 C :   -0.268597
   3 C :   -0.268593
   4 C :    0.183252
   5 C :   -0.232997
   6 C :   -0.063366
   7 C :   -0.153076
   8 C :   -0.057511
   9 C :   -0.153077
  10 H :    0.054635
  11 H :    0.093287
  12 H :    0.096118
  13 H :    0.096117
  14 H :    0.093288
  15 H :    0.057238
  16 H :    0.056779
  17 H :    0.054636
  18 H :    0.054328
  19 H :    0.048279
  20 H :    0.039259
  21 H :    0.047506
  22 H :    0.048278
  23 H :    0.054328
Sum of atomic charges:    0.0000000

LOEWDIN ATOMIC CHARGES
----------------------
   0 C :   -0.021523
   1 C :   -0.035739
   2 C :    0.005781
   3 C :    0.005780
   4 C :   -0.035739
   5 C :    0.023422
   6 C :   -0.021522
   7 C :   -0.000542
   8 C :   -0.005864
   9 C :   -0.000542
  10 H :    0.010150
  11 H :    0.004249
  12 H :   -0.002629
  13 H :   -0.002629
  14 H :    0.004248
  15 H :    0.009699
  16 H :    0.010040
  17 H :    0.010150
  18 H :    0.003643
  19 H :    0.011896
  20 H :    0.008847
  21 H :    0.003284
  22 H :    0.011895
  23 H :    0.003643

  Mayer bond orders larger than 0.100000
B(  0-C ,  1-C ) :   0.9451 B(  0-C ,  6-C ) :   0.9389 B(  0-C ,  9-C ) :   0.9482
B(  0-C , 10-H ) :   1.0230 B(  1-C ,  2-C ) :   0.9315 B(  1-C ,  5-C ) :   0.9565
B(  1-C , 11-H ) :   0.9790 B(  2-C ,  3-C ) :   1.9783 B(  2-C , 12-H ) :   0.9869
B(  3-C ,  4-C ) :   0.9315 B(  3-C , 13-H ) :   0.9869 B(  4-C ,  5-C ) :   0.9565
B(  4-C ,  6-C ) :   0.9451 B(  4-C , 14-H ) :   0.9790 B(  5-C , 15-H ) :   1.0140
B(  5-C , 16-H ) :   1.0382 B(  6-C ,  7-C ) :   0.9482 B(  6-C , 17-H ) :   1.0230
B(  7-C ,  8-C ) :   0.9382 B(  7-C , 18-H ) :   1.0219 B(  7-C , 19-H ) :   1.0279
B(  8-C ,  9-C ) :   0.9382 B(  8-C , 20-H ) :   1.0235 B(  8-C , 21-H ) :   1.0187
B(  9-C , 22-H ) :   1.0279 B(  9-C , 23-H ) :   1.0219

E(0)                                       ...   -386.929320965
E(0)                                       ...   -386.929320965
E(CORR)(strong-pairs)                      ...     -1.727981581
E(CORR)(weak-pairs)                        ...     -0.008043270
E(CORR)(corrected)                         ...     -1.736024851
E(TOT)                                     ...   -388.665345816
E(CCSD(T))                                 ...   -388.742120326
FINAL SINGLE POINT ENERGY      -388.742120326294
                             ****ORCA TERMINATED NORMALLY****
TOTAL RUN TIME: 0 days 0 hours 10 minutes 51 seconds 325 msec
