 Gaussian 16, Revision C.01,
 Gaussian 16:  AS64L-G16RevC.01  3-Jul-2019

 -------------------------
 # B3LYP/def2tzvp opt freq
 -------------------------

 ---------------
 P3_crest_conf_2
 ---------------
 Symbolic Z-matrix:
 Charge =  0 Multiplicity = 1

 SCF Done:  E(RB3LYP) =  -389.592708322     A.U. after   14 cycles
 SCF Done:  E(RB3LYP) =  -389.594873239     A.U. after   11 cycles
 SCF Done:  E(RB3LYP) =  -389.595085461     A.U. after   10 cycles
 SCF Done:  E(RB3LYP) =  -389.595106697     A.U. after    8 cycles
 SCF Done:  E(RB3LYP) =  -389.595108484     A.U. after    7 cycles
 Optimization completed.
    -- Stationary point found.
 Normal termination of Gaussian 16 at Tue Sep  6 23:03:19 2022.

 --------------------------------------------------------------------
 #N Geom=AllCheck Guess=TCheck SCRF=Check GenChk RB3LYP/def2TZVP Freq
 --------------------------------------------------------------------

 Structure from the checkpoint file:  "/tmp/Gau-2140893.chk"
 ---------------
 P3_crest_conf_2
 ---------------
 Charge =  0 Multiplicity = 1

                         Standard orientation:
 ---------------------------------------------------------------------
 Center     Atomic      Atomic             Coordinates (Angstroms)
 Number     Number       Type             X           Y           Z
 ---------------------------------------------------------------------
      1          6           0       -0.323905    0.785435   -0.694701
      2          6           0        1.130708    1.128759   -0.221508
      3          6           0        1.281332    0.667097    1.216728
      4          6           0        1.281373   -0.667134    1.216699
      5          6           0        1.130729   -1.128741   -0.221552
      6          6           0        1.907309    0.000030   -0.941913
      7          6           0       -0.323896   -0.785418   -0.694716
      8          6           0       -1.525562   -1.211401    0.166442
      9          6           0       -2.473188   -0.000015    0.127199
     10          6           0       -1.525583    1.211387    0.166456
     11          1           0       -0.448444    1.162484   -1.712272
     12          1           0        1.440081    2.152209   -0.427880
     13          1           0        1.291896    1.316281    2.081462
     14          1           0        1.291969   -1.316355    2.081405
     15          1           0        1.440114   -2.152178   -0.427966
     16          1           0        2.972968    0.000035   -0.710386
     17          1           0        1.765375    0.000048   -2.025431
     18          1           0       -0.448441   -1.162446   -1.712295
     19          1           0       -1.997888   -2.126868   -0.194633
     20          1           0       -1.213085   -1.392204    1.197549
     21          1           0       -3.039217   -0.000013   -0.809570
     22          1           0       -3.200191   -0.000025    0.942256
     23          1           0       -1.213113    1.392185    1.197565
     24          1           0       -1.997924    2.126851   -0.194609
 ---------------------------------------------------------------------

 SCF Done:  E(RB3LYP) =  -389.595108484     A.U. after    1 cycles

 The electronic state is 1-A.
 Alpha  occ. eigenvalues --  -10.17410 -10.17408 -10.16713 -10.16697 -10.16435
 Alpha  occ. eigenvalues --  -10.16317 -10.16228 -10.15993 -10.15732 -10.15730
 Alpha  occ. eigenvalues --   -0.88515  -0.81005  -0.73224  -0.72639  -0.67780
 Alpha  occ. eigenvalues --   -0.66902  -0.56936  -0.56098  -0.55823  -0.51781
 Alpha  occ. eigenvalues --   -0.49544  -0.48117  -0.47148  -0.41829  -0.41453
 Alpha  occ. eigenvalues --   -0.39495  -0.39174  -0.36249  -0.34822  -0.34707
 Alpha  occ. eigenvalues --   -0.33479  -0.32497  -0.32008  -0.31233  -0.30694
 Alpha  occ. eigenvalues --   -0.29336  -0.24230
 Alpha virt. eigenvalues --    0.00257   0.02983   0.05046   0.05653   0.06720
 Alpha virt. eigenvalues --    0.08436   0.08608   0.09061   0.09772   0.10433
 Alpha virt. eigenvalues --    0.11618   0.12148   0.12772   0.13948   0.14135

 Mulliken charges:
               1
     1  C   -0.054932
     2  C    0.046968
     3  C   -0.219172
     4  C   -0.219176
     5  C    0.046963
     6  C   -0.171512
     7  C   -0.054926
     8  C   -0.191557
     9  C   -0.150247
    10  C   -0.191559
    11  H    0.063652
    12  H    0.076635
    13  H    0.107044
    14  H    0.107044
    15  H    0.076635
    16  H    0.085111
    17  H    0.080632
    18  H    0.063652
    19  H    0.085851
    20  H    0.081307
    21  H    0.078099
    22  H    0.086331
    23  H    0.081306
    24  H    0.085851
 Sum of Mulliken charges =  -0.00000

 Dipole moment (field-independent basis, Debye):
    X=             -0.1847    Y=              0.0000    Z=             -0.2546  Tot=              0.3146
 Quadrupole moment (field-independent basis, Debye-Ang):
   XX=            -64.8218   YY=            -61.4620   ZZ=            -61.1647
   XY=             -0.0001   XZ=             -0.1157   YZ=              0.0000

  Exact polarizability:     111.143      -0.000     105.144      -0.128       0.000      97.282
 Approx polarizability:     148.191      -0.001     169.530       1.772       0.000     151.094

                      1                      2                      3
                      A                      A                      A
 Frequencies --    146.2543               172.2836               295.5403
 Red. masses --      2.5211                 2.3576                 2.1968
 Frc consts  --      0.0318                 0.0412                 0.1131
 IR Inten    --      0.0095                 0.0123                 0.2232

                      4                      5                      6
                      A                      A                      A
 Frequencies --    341.4133               454.0672               475.6567
 Red. masses --      2.9102                 1.9655                 3.4861
 Frc consts  --      0.1999                 0.2388                 0.4647
 IR Inten    --      0.0922                 2.0278                 0.0040

                      7                      8                      9
                      A                      A                      A
 Frequencies --    480.2658               549.6789               604.5585
 Red. masses --      2.5630                 1.8354                 2.8229
 Frc consts  --      0.3483                 0.3267                 0.6079
 IR Inten    --      5.3703                 0.8475                 0.6397

                     10                     11                     12
                      A                      A                      A
 Frequencies --    667.5250               729.1452               752.5958
 Red. masses --      3.2209                 2.7401                 1.8174
 Frc consts  --      0.8456                 0.8583                 0.6065
 IR Inten    --      1.3719                 1.5964                36.4083

                     13                     14                     15
                      A                      A                      A
 Frequencies --    797.4793               814.9720               855.4611
 Red. masses --      2.9082                 2.9572                 2.2988
 Frc consts  --      1.0897                 1.1572                 0.9912
 IR Inten    --     11.1207                 2.5443                 0.8464

                     16                     17                     18
                      A                      A                      A
 Frequencies --    865.1874               892.5530               905.6605
 Red. masses --      2.2673                 2.2292                 2.3719
 Frc consts  --      0.9999                 1.0463                 1.1463
 IR Inten    --      1.2889                 1.1604                 4.8888

                     19                     20                     21
                      A                      A                      A
 Frequencies --    915.1847               935.2030               954.4634
 Red. masses --      2.2718                 1.8222                 1.4984
 Frc consts  --      1.1211                 0.9390                 0.8043
 IR Inten    --      0.2179                 0.0020                 2.4084

                     22                     23                     24
                      A                      A                      A
 Frequencies --    956.2956               967.5892               983.3350
 Red. masses --      3.2221                 2.1890                 1.7188
 Frc consts  --      1.7361                 1.2074                 0.9792
 IR Inten    --      0.0453                 0.2501                 1.5774

                     25                     26                     27
                      A                      A                      A
 Frequencies --    988.3085              1032.7649              1044.9406
 Red. masses --      1.7311                 1.4320                 1.8355
 Frc consts  --      0.9962                 0.8999                 1.1808
 IR Inten    --      0.0769                 2.5943                 0.3958

                     28                     29                     30
                      A                      A                      A
 Frequencies --   1054.9513              1116.5359              1118.6682
 Red. masses --      1.7409                 1.5073                 2.0008
 Frc consts  --      1.1415                 1.1071                 1.4752
 IR Inten    --      0.1704                 0.5888                 0.3656

                     31                     32                     33
                      A                      A                      A
 Frequencies --   1136.6295              1168.8840              1170.1801
 Red. masses --      1.0898                 1.2696                 1.4039
 Frc consts  --      0.8296                 1.0220                 1.1326
 IR Inten    --      0.0001                 3.2753                 0.3535

                     34                     35                     36
                      A                      A                      A
 Frequencies --   1181.4622              1202.2699              1250.3119
 Red. masses --      1.8418                 1.4404                 1.4407
 Frc consts  --      1.5147                 1.2267                 1.3270
 IR Inten    --      0.0639                 0.4416                 1.0378

                     37                     38                     39
                      A                      A                      A
 Frequencies --   1270.9298              1275.3357              1286.3812
 Red. masses --      1.5279                 1.5462                 1.3689
 Frc consts  --      1.4540                 1.4817                 1.3346
 IR Inten    --      3.2650                 2.1305                 1.7636

                     40                     41                     42
                      A                      A                      A
 Frequencies --   1303.3812              1318.1482              1319.2930
 Red. masses --      1.2821                 1.2972                 1.3963
 Frc consts  --      1.2832                 1.3280                 1.4319
 IR Inten    --      0.0493                 0.0016                 0.1327

                     43                     44                     45
                      A                      A                      A
 Frequencies --   1339.4909              1341.9483              1357.2776
 Red. masses --      1.4537                 1.2317                 1.5334
 Frc consts  --      1.5368                 1.3068                 1.6643
 IR Inten    --      0.1998                 0.0597                 3.1622

                     46                     47                     48
                      A                      A                      A
 Frequencies --   1360.4271              1383.0478              1491.5191
 Red. masses --      1.3496                 1.6288                 1.0914
 Frc consts  --      1.4717                 1.8356                 1.4305
 IR Inten    --      2.3814                 7.1540                 4.5534

                     49                     50                     51
                      A                      A                      A
 Frequencies --   1494.1309              1501.6768              1509.2661
 Red. masses --      1.0844                 1.1097                 1.1058
 Frc consts  --      1.4263                 1.4744                 1.4840
 IR Inten    --      3.9438                 2.6507                 5.2126

                     52                     53                     54
                      A                      A                      A
 Frequencies --   1637.2342              3020.4829              3029.3976
 Red. masses --      5.6635                 1.0671                 1.0865
 Frc consts  --      8.9445                 5.7362                 5.8746
 IR Inten    --      1.3145                35.3751                 5.6350

                     55                     56                     57
                      A                      A                      A
 Frequencies --   3038.9368              3039.0920              3039.1527
 Red. masses --      1.0658                 1.0641                 1.0595
 Frc consts  --      5.7992                 5.7905                 5.7658
 IR Inten    --     12.2625                 5.3860                44.4619

                     58                     59                     60
                      A                      A                      A
 Frequencies --   3047.4101              3067.5339              3077.3400
 Red. masses --      1.0799                 1.0920                 1.1035
 Frc consts  --      5.9090                 6.0543                 6.1572
 IR Inten    --     70.1471                43.9143                26.7909

                     61                     62                     63
                      A                      A                      A
 Frequencies --   3084.8250              3094.9339              3094.9914
 Red. masses --      1.1045                 1.1030                 1.0868
 Frc consts  --      6.1925                 6.2250                 6.1334
 IR Inten    --     57.9990                48.4294                81.4343

                     64                     65                     66
                      A                      A                      A
 Frequencies --   3099.5733              3185.8993              3209.8066
 Red. masses --      1.0916                 1.0860                 1.1049
 Frc consts  --      6.1790                 6.4943                 6.7068
 IR Inten    --     24.8665                 7.4434                13.8109

 - Thermochemistry -
 -------------------
 Temperature   298.150 Kelvin.  Pressure   1.00000 Atm.
 Atom     1 has atomic number  6 and mass  12.00000

 Molecular mass:   134.10955 amu.
 Principal axes and moments of inertia in atomic units:
                           1         2         3
     Eigenvalues --   727.770581357.164651485.45684
           X            0.99992   0.00000  -0.01249
           Y           -0.00000   1.00000  -0.00000
           Z            0.01249   0.00000   0.99992
 This molecule is an asymmetric top.
 Rotational symmetry number  1.
 Warning -- assumption of classical behavior for rotation
           may cause significant error
 Rotational temperatures (Kelvin)      0.11901     0.06382     0.05831
 Rotational constants (GHZ):           2.47982     1.32979     1.21494
 Zero-point vibrational energy     570003.5 (Joules/Mol)
                                  136.23410 (Kcal/Mol)
 Warning -- explicit consideration of   9 degrees of freedom as
           vibrations may cause significant error
 Vibrational temperatures:    210.43   247.88   425.22   491.22   653.30
          (Kelvin)            684.36   691.00   790.87   869.82   960.42
                             1049.08  1082.82  1147.39  1172.56  1230.82
                             1244.81  1284.18  1303.04  1316.75  1345.55
                             1373.26  1375.90  1392.15  1414.80  1421.96
                             1485.92  1503.44  1517.84  1606.45  1609.51
                             1635.36  1681.76  1683.63  1699.86  1729.80
                             1798.92  1828.58  1834.92  1850.82  1875.27
                             1896.52  1898.17  1927.23  1930.76  1952.82
                             1957.35  1989.90  2145.96  2149.72  2160.58
                             2171.50  2355.61  4345.80  4358.63  4372.35
                             4372.58  4372.66  4384.54  4413.50  4427.61
                             4438.38  4452.92  4453.00  4459.59  4583.80
                             4618.20

 Zero-point correction=                           0.217103 (Hartree/Particle)
 Thermal correction to Energy=                    0.224474
 Thermal correction to Enthalpy=                  0.225418
 Thermal correction to Gibbs Free Energy=         0.185527
 Sum of electronic and zero-point Energies=           -389.378006
 Sum of electronic and thermal Energies=              -389.370635
 Sum of electronic and thermal Enthalpies=            -389.369691
 Sum of electronic and thermal Free Energies=         -389.409582

                     E (Thermal)             CV                S
                      KCal/Mol        Cal/Mol-Kelvin    Cal/Mol-Kelvin
 Total                  140.859             32.605             83.957
 Electronic               0.000              0.000              0.000
 Translational            0.889              2.981             40.593
 Rotational               0.889              2.981             28.774
 Vibrational            139.082             26.644             14.590
 Vibration     1          0.617              1.907              2.720
 Vibration     2          0.626              1.877              2.410
 Vibration     3          0.690              1.682              1.442
 Vibration     4          0.721              1.593              1.206
 Vibration     5          0.813              1.352              0.784
 Vibration     6          0.832              1.304              0.722
 Vibration     7          0.837              1.294              0.709
 Vibration     8          0.905              1.140              0.545
 Vibration     9          0.963              1.022              0.442

 Optimization completed.
    -- Stationary point found.
 Normal termination of Gaussian 16 at Tue Sep  6 23:10:50 2022.
