 Gaussian 16, Revision C.01,
 Gaussian 16:  AS64L-G16RevC.01  3-Jul-2019

 ---------------------------------------------
 # B3LYP/def2tzvp opt=(ts,calcfc,noeigen) freq
 ---------------------------------------------

 ----------------
 TS1_crest_conf_1
 ----------------
 Symbolic Z-matrix:
 Charge =  0 Multiplicity = 1

 SCF Done:  E(RB3LYP) =  -310.818866039     A.U. after   14 cycles
 SCF Done:  E(RB3LYP) =  -310.820688922     A.U. after   12 cycles
 SCF Done:  E(RB3LYP) =  -310.820825542     A.U. after   11 cycles
 SCF Done:  E(RB3LYP) =  -310.820832580     A.U. after    8 cycles
 Optimization completed.
    -- Stationary point found.
 Normal termination of Gaussian 16 at Tue Sep  6 23:03:41 2022.

 --------------------------------------------------------------------
 #N Geom=AllCheck Guess=TCheck SCRF=Check GenChk RB3LYP/def2TZVP Freq
 --------------------------------------------------------------------

 Structure from the checkpoint file:  "/tmp/Gau-2852536.chk"
 ----------------
 TS1_crest_conf_1
 ----------------
 Charge =  0 Multiplicity = 1

                         Standard orientation:
 ---------------------------------------------------------------------
 Center     Atomic      Atomic             Coordinates (Angstroms)
 Number     Number       Type             X           Y           Z
 ---------------------------------------------------------------------
      1          6           0       -0.856035   -0.248634   -1.157326
      2          6           0       -1.004366    1.050047   -0.705325
      3          6           0       -1.004238    1.050196    0.705335
      4          6           0       -0.855843   -0.248385    1.157571
      5          6           0       -1.146119   -1.167730    0.000243
      6          6           0        1.388873   -0.516254    0.669165
      7          6           0        1.388663   -0.516443   -0.669349
      8          6           0        1.945477    0.690221   -0.000315
      9          1           0       -0.921838   -0.553031   -2.192063
     10          1           0       -1.013577    1.933760   -1.327491
     11          1           0       -1.013326    1.934036    1.327323
     12          1           0       -0.921451   -0.552572    2.192381
     13          1           0       -0.605937   -2.112144    0.000301
     14          1           0       -2.221913   -1.399653    0.000360
     15          1           0        1.602389   -1.145794    1.513987
     16          1           0        1.602239   -1.146274   -1.513941
     17          1           0        3.017712    0.883001   -0.000456
     18          1           0        1.337229    1.600559   -0.000395
 ---------------------------------------------------------------------

 SCF Done:  E(RB3LYP) =  -310.820832580     A.U. after    1 cycles

 The electronic state is 1-A.
 Alpha  occ. eigenvalues --  -10.18003 -10.18002 -10.17669 -10.17580 -10.17426
 Alpha  occ. eigenvalues --  -10.16977 -10.16752 -10.16703  -0.87736  -0.84785
 Alpha  occ. eigenvalues --   -0.70935  -0.70341  -0.59093  -0.55730  -0.55687
 Alpha  occ. eigenvalues --   -0.52610  -0.52007  -0.49178  -0.46356  -0.41029
 Alpha  occ. eigenvalues --   -0.39178  -0.37872  -0.37336  -0.35821  -0.32757
 Alpha  occ. eigenvalues --   -0.30147  -0.29713  -0.23282  -0.23197
 Alpha virt. eigenvalues --   -0.01253  -0.00296   0.04701   0.06401   0.06782
 Alpha virt. eigenvalues --    0.07572   0.08037   0.08775   0.09803   0.10398
 Alpha virt. eigenvalues --    0.12555   0.13113   0.14218   0.14408   0.15394

 Mulliken charges:
               1
     1  C   -0.108897
     2  C   -0.153205
     3  C   -0.153162
     4  C   -0.108958
     5  C   -0.099594
     6  C   -0.121806
     7  C   -0.121859
     8  C   -0.216211
     9  H    0.111403
    10  H    0.107113
    11  H    0.107112
    12  H    0.111406
    13  H    0.103588
    14  H    0.105404
    15  H    0.132018
    16  H    0.131997
    17  H    0.092691
    18  H    0.080960
 Sum of Mulliken charges =  -0.00000

 Dipole moment (field-independent basis, Debye):
    X=             -0.2107    Y=             -0.7200    Z=              0.0002  Tot=              0.7502
 Quadrupole moment (field-independent basis, Debye-Ang):
   XX=            -51.4464   YY=            -47.0005   ZZ=            -46.8263
   XY=             -0.2569   XZ=              0.0005   YZ=              0.0001

  Exact polarizability:     104.809      -2.295      89.101      -0.002      -0.000      86.790
 Approx polarizability:     167.545     -14.431     149.687       0.002       0.001     155.843

 ******    1 imaginary frequencies (negative Signs) ******

                      1                      2                      3
                      A                      A                      A
 Frequencies --   -420.3945               140.3268               189.0221
 Red. masses --      7.0485                 3.8895                 2.9552
 Frc consts  --      0.7339                 0.0451                 0.0622
 IR Inten    --      2.2993                 0.0687                 4.0508

                      4                      5                      6
                      A                      A                      A
 Frequencies --    247.2291               342.3953               401.5898
 Red. masses --      3.0154                 3.2283                 3.4742
 Frc consts  --      0.1086                 0.2230                 0.3301
 IR Inten    --      0.6188                 3.0531                 2.4185

                      7                      8                      9
                      A                      A                      A
 Frequencies --    442.5928               565.8749               662.8525
 Red. masses --      1.9133                 2.6687                 1.1182
 Frc consts  --      0.2208                 0.5035                 0.2895
 IR Inten    --      0.4680                 2.6552                 2.8707

                     10                     11                     12
                      A                      A                      A
 Frequencies --    763.7453               775.3476               790.5249
 Red. masses --      1.4152                 1.6180                 1.9611
 Frc consts  --      0.4864                 0.5731                 0.7221
 IR Inten    --     51.1835                14.0604                 5.8804

                     13                     14                     15
                      A                      A                      A
 Frequencies --    812.2365               841.2064               861.8768
 Red. masses --      2.3154                 2.7914                 1.1040
 Frc consts  --      0.9000                 1.1638                 0.4832
 IR Inten    --     25.4030                 0.9082                 0.8450

                     16                     17                     18
                      A                      A                      A
 Frequencies --    891.5552               911.4078               948.2957
 Red. masses --      1.1427                 1.7430                 1.3712
 Frc consts  --      0.5352                 0.8530                 0.7265
 IR Inten    --      5.0536                 7.2763                 5.2973

                     19                     20                     21
                      A                      A                      A
 Frequencies --    962.8967               968.0543               975.1650
 Red. masses --      1.3495                 1.7715                 1.6501
 Frc consts  --      0.7372                 0.9781                 0.9245
 IR Inten    --      4.8566                 0.1481                 3.8428

                     22                     23                     24
                      A                      A                      A
 Frequencies --   1035.3990              1057.4760              1062.1290
 Red. masses --      1.6033                 1.5855                 1.3145
 Frc consts  --      1.0127                 1.0446                 0.8737
 IR Inten    --      5.8320                 0.0752                13.2066

                     25                     26                     27
                      A                      A                      A
 Frequencies --   1073.2435              1091.7746              1096.7774
 Red. masses --      1.3646                 1.3618                 1.1667
 Frc consts  --      0.9261                 0.9564                 0.8269
 IR Inten    --      7.7717                 1.7939                 0.1842

                     28                     29                     30
                      A                      A                      A
 Frequencies --   1119.1300              1132.9258              1169.7278
 Red. masses --      2.0242                 1.1419                 3.0471
 Frc consts  --      1.4937                 0.8635                 2.4565
 IR Inten    --      3.2943                 9.3667                 6.4500

                     31                     32                     33
                      A                      A                      A
 Frequencies --   1282.2352              1315.7571              1399.7427
 Red. masses --      1.7552                 1.5406                 3.7273
 Frc consts  --      1.7002                 1.5715                 4.3027
 IR Inten    --      3.8612                 1.2944                 1.1936

                     34                     35                     36
                      A                      A                      A
 Frequencies --   1442.9006              1459.9892              1472.2502
 Red. masses --      2.0477                 1.1659                 1.4063
 Frc consts  --      2.5118                 1.4642                 1.7959
 IR Inten    --      0.5180                14.3981                 3.1702

                     37                     38                     39
                      A                      A                      A
 Frequencies --   1532.1817              1551.6108              2982.7270
 Red. masses --      3.7448                 2.8767                 1.0720
 Frc consts  --      5.1796                 4.0805                 5.6192
 IR Inten    --      3.8249                 2.0389                29.0493

                     40                     41                     42
                      A                      A                      A
 Frequencies --   2995.9788              3084.6562              3108.7342
 Red. masses --      1.0584                 1.1015                 1.0882
 Frc consts  --      5.5972                 6.1750                 6.1963
 IR Inten    --     28.7606                44.7203                18.9447

                     43                     44                     45
                      A                      A                      A
 Frequencies --   3194.0237              3202.2797              3212.5410
 Red. masses --      1.0859                 1.0902                 1.0964
 Frc consts  --      6.5272                 6.5866                 6.6665
 IR Inten    --      0.0527                 7.2008                18.8345

                     46                     47                     48
                      A                      A                      A
 Frequencies --   3222.9526              3245.5697              3272.9022
 Red. masses --      1.1040                 1.0863                 1.1193
 Frc consts  --      6.7566                 6.7420                 7.0644
 IR Inten    --      3.7256                 0.4087                 0.3960

 - Thermochemistry -
 -------------------
 Temperature   298.150 Kelvin.  Pressure   1.00000 Atm.
 Atom     1 has atomic number  6 and mass  12.00000

 Molecular mass:   106.07825 amu.
 Principal axes and moments of inertia in atomic units:
                           1         2         3
     Eigenvalues --   534.57196 883.14465 898.48016
           X            0.99965   0.02661   0.00012
           Y           -0.02661   0.99965   0.00005
           Z           -0.00012  -0.00005   1.00000
 This molecule is an asymmetric top.
 Rotational symmetry number  1.
 Warning -- assumption of classical behavior for rotation
           may cause significant error
 Rotational temperatures (Kelvin)      0.16202     0.09807     0.09640
 Rotational constants (GHZ):           3.37605     2.04354     2.00866
    1 imaginary frequencies ignored.
 Zero-point vibrational energy     396632.7 (Joules/Mol)
                                   94.79749 (Kcal/Mol)
 Warning -- explicit consideration of   7 degrees of freedom as
           vibrations may cause significant error
 Vibrational temperatures:    201.90   271.96   355.71   492.63   577.80
          (Kelvin)            636.79   814.17   953.70  1098.86  1115.55
                             1137.39  1168.63  1210.31  1240.05  1282.75
                             1311.31  1364.39  1385.39  1392.81  1403.04
                             1489.71  1521.47  1528.17  1544.16  1570.82
                             1578.02  1610.18  1630.03  1682.98  1844.85
                             1893.08  2013.92  2076.01  2100.60  2118.24
                             2204.47  2232.42  4291.48  4310.55  4438.13
                             4472.78  4595.49  4607.37  4622.13  4637.11
                             4669.65  4708.98

 Zero-point correction=                           0.151069 (Hartree/Particle)
 Thermal correction to Energy=                    0.157914
 Thermal correction to Enthalpy=                  0.158858
 Thermal correction to Gibbs Free Energy=         0.120509
 Sum of electronic and zero-point Energies=           -310.669763
 Sum of electronic and thermal Energies=              -310.662919
 Sum of electronic and thermal Enthalpies=            -310.661974
 Sum of electronic and thermal Free Energies=         -310.700324

                     E (Thermal)             CV                S
                      KCal/Mol        Cal/Mol-Kelvin    Cal/Mol-Kelvin
 Total                   99.093             27.834             80.713
 Electronic               0.000              0.000              0.000
 Translational            0.889              2.981             39.894
 Rotational               0.889              2.981             27.541
 Vibrational             97.315             21.873             13.278
 Vibration     1          0.615              1.913              2.799
 Vibration     2          0.633              1.855              2.237
 Vibration     3          0.661              1.767              1.750
 Vibration     4          0.722              1.591              1.201
 Vibration     5          0.767              1.467              0.957
 Vibration     6          0.802              1.377              0.818
 Vibration     7          0.922              1.105              0.512

 Optimization completed.
    -- Stationary point found.
 Normal termination of Gaussian 16 at Tue Sep  6 23:06:58 2022.
