                         Program Version 5.0.2 -  RELEASE  -
|  1> # TS2_crest_conf_1_man_DLPNO
|  2> %maxcore 16000
|  3> %pal nprocs 8 end
|  4> ! DLPNO-CCSD(T) def2-tzvpp def2-tzvpp/C
|  5> %scf maxiter 500
|  6> end
|  7> % mdci
|  8> Density None
|  9> end
| 10> % elprop
| 11> Dipole False
| 12> end
| 13> * xyz 0 1
| 14>  C  -0.98250100  -1.15328300   0.40157600
| 15>  C  -1.91371800  -0.69948200  -0.53398400
| 16>  C  -1.91380100   0.69930400  -0.53406100
| 17>  C  -0.98262000   1.15333800   0.40142000
| 18>  C  -0.70320200   0.00009100   1.32371700
| 19>  C   0.87368100  -0.70068100  -0.76918900
| 20>  C   0.87377400   0.70078800  -0.76919200
| 21>  C   2.09868000   0.78016900   0.13700700
| 22>  C   2.09860300  -0.78022500   0.13699000
| 23>  H  -0.85614800  -2.18747600   0.69147500
| 24>  H  -2.44173900  -1.32295000  -1.24221600
| 25>  H  -2.44196700   1.32262800  -1.24231300
| 26>  H  -0.85658100   2.18757400   0.69130000
| 27>  H  -1.46908800   0.00014300   2.11395100
| 28>  H   0.26513300   0.00015400   1.81708900
| 29>  H   0.60098800  -1.39169300  -1.55240200
| 30>  H   0.60105600   1.39168700  -1.55249600
| 31>  H   1.97336700   1.27343600   1.10419200
| 32>  H   2.97923600   1.20602200  -0.34919300
| 33>  H   1.97323100  -1.27353100   1.10414800
| 34>  H   2.97913100  -1.20610500  -0.34923300
| 35> **                         ****END OF INPUT****

CARTESIAN COORDINATES (ANGSTROEM)
---------------------------------
  C     -0.982501   -1.153283    0.401576
  C     -1.913718   -0.699482   -0.533984
  C     -1.913801    0.699304   -0.534061
  C     -0.982620    1.153338    0.401420
  C     -0.703202    0.000091    1.323717
  C      0.873681   -0.700681   -0.769189
  C      0.873774    0.700788   -0.769192
  C      2.098680    0.780169    0.137007
  C      2.098603   -0.780225    0.136990
  H     -0.856148   -2.187476    0.691475
  H     -2.441739   -1.322950   -1.242216
  H     -2.441967    1.322628   -1.242313
  H     -0.856581    2.187574    0.691300
  H     -1.469088    0.000143    2.113951
  H      0.265133    0.000154    1.817089
  H      0.600988   -1.391693   -1.552402
  H      0.601056    1.391687   -1.552496
  H      1.973367    1.273436    1.104192
  H      2.979236    1.206022   -0.349193
  H      1.973231   -1.273531    1.104148
  H      2.979131   -1.206105   -0.349233

 Total Charge           Charge          ....    0
 Multiplicity           Mult            ....    1
 Number of Electrons    NEL             ....   66
 Basis Dimension        Dim             ....  447

ORBITAL ENERGIES
----------------

  NO   OCC          E(Eh)            E(eV)
   0   2.0000     -11.235158      -305.7242
   1   2.0000     -11.235143      -305.7238
   2   2.0000     -11.223607      -305.4099
   3   2.0000     -11.222425      -305.3777
   4   2.0000     -11.221483      -305.3521
   5   2.0000     -11.219716      -305.3040
   6   2.0000     -11.219184      -305.2895
   7   2.0000     -11.215183      -305.1807
   8   2.0000     -11.213993      -305.1483
   9   2.0000      -1.161310       -31.6008
  10   2.0000      -1.120665       -30.4949
  11   2.0000      -0.956420       -26.0255
  12   2.0000      -0.951847       -25.9011
  13   2.0000      -0.887436       -24.1484
  14   2.0000      -0.870956       -23.6999
  15   2.0000      -0.757118       -20.6022
  16   2.0000      -0.719565       -19.5804
  17   2.0000      -0.701571       -19.0907
  18   2.0000      -0.693714       -18.8769
  19   2.0000      -0.660637       -17.9768
  20   2.0000      -0.639883       -17.4121
  21   2.0000      -0.568722       -15.4757
  22   2.0000      -0.539631       -14.6841
  23   2.0000      -0.529404       -14.4058
  24   2.0000      -0.517945       -14.0940
  25   2.0000      -0.509766       -13.8714
  26   2.0000      -0.504376       -13.7248
  27   2.0000      -0.490859       -13.3570
  28   2.0000      -0.460132       -12.5208
  29   2.0000      -0.445631       -12.1262
  30   2.0000      -0.424780       -11.5589
  31   2.0000      -0.296373        -8.0647
  32   2.0000      -0.293390        -7.9835
  33   0.0000       0.126420         3.4401
  34   0.0000       0.139288         3.7902
  35   0.0000       0.148432         4.0390
  36   0.0000       0.161053         4.3825
  37   0.0000       0.170085         4.6283

MULLIKEN ATOMIC CHARGES
-----------------------
   0 C :   -0.040208
   1 C :   -0.183492
   2 C :   -0.183468
   3 C :   -0.040215
   4 C :   -0.091389
   5 C :   -0.107532
   6 C :   -0.107664
   7 C :   -0.104322
   8 C :   -0.104385
   9 H :    0.111800
  10 H :    0.093274
  11 H :    0.093272
  12 H :    0.111781
  13 H :    0.082174
  14 H :    0.051065
  15 H :    0.108081
  16 H :    0.108073
  17 H :    0.044851
  18 H :    0.056725
  19 H :    0.044852
  20 H :    0.056725
Sum of atomic charges:    0.0000000

LOEWDIN ATOMIC CHARGES
----------------------
   0 C :    0.026100
   1 C :   -0.031185
   2 C :   -0.031199
   3 C :    0.026100
   4 C :   -0.028217
   5 C :    0.011058
   6 C :    0.011054
   7 C :   -0.000909
   8 C :   -0.000903
   9 H :   -0.001810
  10 H :    0.002251
  11 H :    0.002249
  12 H :   -0.001816
  13 H :    0.033025
  14 H :    0.016798
  15 H :   -0.016370
  16 H :   -0.016370
  17 H :   -0.004335
  18 H :    0.004409
  19 H :   -0.004336
  20 H :    0.004406

  Mayer bond orders larger than 0.100000
B(  0-C ,  1-C ) :   1.5335 B(  0-C ,  4-C ) :   0.9819 B(  0-C ,  5-C ) :   0.3493
B(  0-C ,  9-H ) :   0.9766 B(  1-C ,  2-C ) :   1.4354 B(  1-C , 10-H ) :   0.9805
B(  2-C ,  3-C ) :   1.5335 B(  2-C , 11-H ) :   0.9805 B(  3-C ,  4-C ) :   0.9819
B(  3-C ,  6-C ) :   0.3494 B(  3-C , 12-H ) :   0.9766 B(  4-C , 13-H ) :   0.9642
B(  4-C , 14-H ) :   1.0208 B(  5-C ,  6-C ) :   1.4392 B(  5-C ,  8-C ) :   0.9562
B(  5-C , 15-H ) :   0.9919 B(  6-C ,  7-C ) :   0.9563 B(  6-C , 16-H ) :   0.9919
B(  7-C ,  8-C ) :   0.9560 B(  7-C , 17-H ) :   1.0358 B(  7-C , 18-H ) :   1.0173
B(  8-C , 19-H ) :   1.0359 B(  8-C , 20-H ) :   1.0173

E(0)                                       ...   -347.747686902
E(0)                                       ...   -347.747686902
E(CORR)(strong-pairs)                      ...     -1.555287688
E(CORR)(weak-pairs)                        ...     -0.007356411
E(CORR)(corrected)                         ...     -1.562644099
E(TOT)                                     ...   -349.310331001
E(CCSD(T))                                 ...   -349.387279097
FINAL SINGLE POINT ENERGY      -349.387279096946
                             ****ORCA TERMINATED NORMALLY****
TOTAL RUN TIME: 0 days 0 hours 7 minutes 48 seconds 563 msec
