 Gaussian 16, Revision C.01,
 Gaussian 16:  AS64L-G16RevC.01  3-Jul-2019

 ---------------------------------------------
 # B3LYP/def2tzvp opt=(ts,calcfc,noeigen) freq
 ---------------------------------------------

 ----------------
 TS3_crest_conf_1
 ----------------
 Symbolic Z-matrix:
 Charge =  0 Multiplicity = 1

 SCF Done:  E(RB3LYP) =  -389.535849821     A.U. after   14 cycles
 SCF Done:  E(RB3LYP) =  -389.534552469     A.U. after   13 cycles
 SCF Done:  E(RB3LYP) =  -389.533639204     A.U. after   13 cycles
 SCF Done:  E(RB3LYP) =  -389.533778427     A.U. after   11 cycles
 SCF Done:  E(RB3LYP) =  -389.533784829     A.U. after    8 cycles
 SCF Done:  E(RB3LYP) =  -389.533785467     A.U. after    7 cycles
 SCF Done:  E(RB3LYP) =  -389.533785580     A.U. after    6 cycles
 Optimization completed.
    -- Stationary point found.
 Normal termination of Gaussian 16 at Tue Sep  6 23:13:57 2022.

 --------------------------------------------------------------------
 #N Geom=AllCheck Guess=TCheck SCRF=Check GenChk RB3LYP/def2TZVP Freq
 --------------------------------------------------------------------

 Structure from the checkpoint file:  "/tmp/Gau-2853171.chk"
 ----------------
 TS3_crest_conf_1
 ----------------
 Charge =  0 Multiplicity = 1

                         Standard orientation:
 ---------------------------------------------------------------------
 Center     Atomic      Atomic             Coordinates (Angstroms)
 Number     Number       Type             X           Y           Z
 ---------------------------------------------------------------------
      1          6           0       -1.381556   -1.150770   -0.082870
      2          6           0       -1.214596   -0.697999    1.229563
      3          6           0       -1.215105    0.699149    1.228842
      4          6           0       -1.382613    1.150406   -0.084007
      5          6           0       -1.973577   -0.000815   -0.856731
      6          6           0        0.580274    0.698980   -0.976823
      7          6           0        0.580318   -0.699717   -0.976131
      8          6           0        1.688082   -1.223759   -0.081610
      9          6           0        2.096350    0.000497    0.765165
     10          6           0        1.687638    1.224061   -0.082420
     11          1           0       -1.549138   -2.186456   -0.346824
     12          1           0       -0.986939   -1.322708    2.081983
     13          1           0       -0.987974    1.324928    2.080620
     14          1           0       -1.550791    2.185688   -0.349156
     15          1           0       -1.785543   -0.001189   -1.928253
     16          1           0       -3.062934   -0.001284   -0.703832
     17          1           0        0.295952    1.266574   -1.852736
     18          1           0        0.296058   -1.268120   -1.851534
     19          1           0        1.394581   -2.078322    0.532181
     20          1           0        2.525600   -1.558617   -0.705483
     21          1           0        3.157667    0.000764    1.016486
     22          1           0        1.543480    0.000710    1.704151
     23          1           0        2.525109    1.559013   -0.706305
     24          1           0        1.393585    2.078818    0.530839
 ---------------------------------------------------------------------

 SCF Done:  E(RB3LYP) =  -389.533785580     A.U. after    1 cycles

 The electronic state is 1-A.
 Alpha  occ. eigenvalues --  -10.17745 -10.17743 -10.17010 -10.16729 -10.16675
 Alpha  occ. eigenvalues --  -10.16125 -10.16124 -10.16111 -10.16056 -10.15796
 Alpha  occ. eigenvalues --   -0.86592  -0.82618  -0.71426  -0.70948  -0.69148
 Alpha  occ. eigenvalues --   -0.68623  -0.56702  -0.55473  -0.54027  -0.51676
 Alpha  occ. eigenvalues --   -0.51134  -0.48803  -0.46775  -0.43214  -0.39568
 Alpha  occ. eigenvalues --   -0.38436  -0.38224  -0.37252  -0.36458  -0.35501
 Alpha  occ. eigenvalues --   -0.34352  -0.34062  -0.33304  -0.33262  -0.30584
 Alpha  occ. eigenvalues --   -0.22614  -0.21559
 Alpha virt. eigenvalues --   -0.00958   0.00213   0.03290   0.05784   0.05894
 Alpha virt. eigenvalues --    0.06476   0.07958   0.08131   0.08969   0.09606
 Alpha virt. eigenvalues --    0.10147   0.11204   0.11553   0.13388   0.14414

 Mulliken charges:
               1
     1  C   -0.096450
     2  C   -0.165046
     3  C   -0.164863
     4  C   -0.096680
     5  C   -0.114626
     6  C   -0.109747
     7  C   -0.109627
     8  C   -0.158935
     9  C   -0.167888
    10  C   -0.158874
    11  H    0.106692
    12  H    0.102846
    13  H    0.102843
    14  H    0.106697
    15  H    0.095817
    16  H    0.098310
    17  H    0.105444
    18  H    0.105424
    19  H    0.084896
    20  H    0.085585
    21  H    0.090682
    22  H    0.087014
    23  H    0.085592
    24  H    0.084895
 Sum of Mulliken charges =  -0.00000

 Dipole moment (field-independent basis, Debye):
    X=              0.1307    Y=             -0.0004    Z=             -0.4750  Tot=              0.4926
 Quadrupole moment (field-independent basis, Debye-Ang):
   XX=            -64.4340   YY=            -60.9442   ZZ=            -61.2036
   XY=             -0.0003   XZ=              1.8959   YZ=              0.0009

  Exact polarizability:     128.536      -0.003     112.616      -6.239      -0.004     107.832
 Approx polarizability:     192.625      -0.012     195.404     -26.699      -0.019     188.658

 ******    1 imaginary frequencies (negative Signs) ******

                      1                      2                      3
                      A                      A                      A
 Frequencies --   -526.1714               101.6064               164.6212
 Red. masses --      8.2055                 2.9605                 3.7700
 Frc consts  --      1.3385                 0.0180                 0.0602
 IR Inten    --      4.8998                 0.0046                 0.3618

                      4                      5                      6
                      A                      A                      A
 Frequencies --    166.5953               209.3848               288.2455
 Red. masses --      2.9826                 1.9863                 3.1610
 Frc consts  --      0.0488                 0.0513                 0.1547
 IR Inten    --      0.1757                 0.0507                 0.4393

                      7                      8                      9
                      A                      A                      A
 Frequencies --    332.0189               459.1913               481.9212
 Red. masses --      2.8889                 2.0034                 3.0534
 Frc consts  --      0.1876                 0.2489                 0.4178
 IR Inten    --      1.0640                 0.9251                 0.0262

                     10                     11                     12
                      A                      A                      A
 Frequencies --    583.1064               618.3824               760.5740
 Red. masses --      2.8020                 1.9031                 1.9209
 Frc consts  --      0.5613                 0.4288                 0.6547
 IR Inten    --      4.4481                 3.0914                 1.6806

                     13                     14                     15
                      A                      A                      A
 Frequencies --    762.1169               775.8333               810.0773
 Red. masses --      3.6164                 1.3104                 2.6572
 Frc consts  --      1.2376                 0.4647                 1.0274
 IR Inten    --      4.3889                64.3760                 1.0141

                     16                     17                     18
                      A                      A                      A
 Frequencies --    827.5426               843.5777               855.1521
 Red. masses --      1.6214                 1.7011                 1.6713
 Frc consts  --      0.6542                 0.7132                 0.7201
 IR Inten    --     11.7440                14.3827                 0.1993

                     19                     20                     21
                      A                      A                      A
 Frequencies --    875.2231               899.3540               911.8053
 Red. masses --      1.6086                 2.9005                 1.7596
 Frc consts  --      0.7260                 1.3823                 0.8619
 IR Inten    --      1.6535                 0.0699                 2.5196

                     22                     23                     24
                      A                      A                      A
 Frequencies --    933.9621               939.5007               953.7989
 Red. masses --      1.6965                 1.6550                 1.4203
 Frc consts  --      0.8719                 0.8607                 0.7613
 IR Inten    --      9.6837                 6.0892                 8.2092

                     25                     26                     27
                      A                      A                      A
 Frequencies --    977.1589               977.2580               998.2189
 Red. masses --      1.7170                 1.5884                 1.3131
 Frc consts  --      0.9659                 0.8937                 0.7709
 IR Inten    --      0.5365                 2.5634                 1.0859

                     28                     29                     30
                      A                      A                      A
 Frequencies --   1001.9919              1047.7167              1054.9211
 Red. masses --      1.8342                 1.6412                 1.4678
 Frc consts  --      1.0850                 1.0614                 0.9624
 IR Inten    --      0.7629                 0.0147                 1.3185

                     31                     32                     33
                      A                      A                      A
 Frequencies --   1087.8754              1089.8834              1117.0598
 Red. masses --      1.1876                 1.2098                 2.1232
 Frc consts  --      0.8281                 0.8467                 1.5610
 IR Inten    --      0.0616                 0.6226                 6.1304

                     34                     35                     36
                      A                      A                      A
 Frequencies --   1136.5388              1142.6130              1151.7609
 Red. masses --      1.1257                 1.3559                 1.1927
 Frc consts  --      0.8567                 1.0430                 0.9322
 IR Inten    --      5.5476                 3.1655                 0.2511

                     37                     38                     39
                      A                      A                      A
 Frequencies --   1215.2501              1243.7488              1281.5833
 Red. masses --      1.4435                 1.2475                 1.8500
 Frc consts  --      1.2561                 1.1370                 1.7902
 IR Inten    --      0.1672                 1.2749                 4.2024

                     40                     41                     42
                      A                      A                      A
 Frequencies --   1311.6355              1313.9267              1319.2529
 Red. masses --      1.4971                 1.9721                 1.3197
 Frc consts  --      1.5175                 2.0059                 1.3532
 IR Inten    --      0.7783                 4.5474                 1.4025

                     43                     44                     45
                      A                      A                      A
 Frequencies --   1327.4902              1369.6013              1384.4212
 Red. masses --      1.2292                 1.5796                 2.7806
 Frc consts  --      1.2762                 1.7458                 3.1400
 IR Inten    --      1.4342                 1.2385                 2.5694

                     46                     47                     48
                      A                      A                      A
 Frequencies --   1445.7029              1471.5882              1483.0361
 Red. masses --      2.3676                 1.3839                 1.7893
 Frc consts  --      2.9155                 1.7657                 2.3187
 IR Inten    --      7.2864                12.2381                 1.2963

                     49                     50                     51
                      A                      A                      A
 Frequencies --   1489.1329              1493.8414              1499.5256
 Red. masses --      1.0975                 1.2421                 3.1847
 Frc consts  --      1.4340                 1.6331                 4.2192
 IR Inten    --      4.0038                 2.8588                 5.0185

                     52                     53                     54
                      A                      A                      A
 Frequencies --   1509.1514              2985.7955              2996.1476
 Red. masses --      1.1070                 1.0715                 1.0730
 Frc consts  --      1.4855                 5.6283                 5.6754
 IR Inten    --      5.9845                35.7731                58.7089

                     55                     56                     57
                      A                      A                      A
 Frequencies --   2997.1761              3047.8997              3051.1357
 Red. masses --      1.0708                 1.0844                 1.0902
 Frc consts  --      5.6676                 5.9352                 5.9795
 IR Inten    --     45.2266                 1.5825                51.8168

                     58                     59                     60
                      A                      A                      A
 Frequencies --   3063.0266              3096.0990              3108.4788
 Red. masses --      1.0654                 1.1052                 1.0892
 Frc consts  --      5.8891                 6.2419                 6.2008
 IR Inten    --     51.6911                30.4529                19.7957

                     61                     62                     63
                      A                      A                      A
 Frequencies --   3164.4271              3182.5832              3182.7043
 Red. masses --      1.0866                 1.0948                 1.0864
 Frc consts  --      6.4109                 6.5337                 6.4840
 IR Inten    --      4.3875                10.5696                 6.7687

                     64                     65                     66
                      A                      A                      A
 Frequencies --   3188.4816              3199.9462              3214.9000
 Red. masses --      1.0908                 1.0942                 1.1028
 Frc consts  --      6.5339                 6.6012                 6.7154
 IR Inten    --     16.2672                21.7593                 6.1404

 - Thermochemistry -
 -------------------
 Temperature   298.150 Kelvin.  Pressure   1.00000 Atm.
 Atom     1 has atomic number  6 and mass  12.00000

 Molecular mass:   134.10955 amu.
 Principal axes and moments of inertia in atomic units:
                           1         2         3
     Eigenvalues --   792.910231453.351111525.94215
           X            0.99968   0.00001   0.02522
           Y           -0.00001   1.00000   0.00002
           Z           -0.02522  -0.00002   0.99968
 This molecule is an asymmetric top.
 Rotational symmetry number  1.
 Warning -- assumption of classical behavior for rotation
           may cause significant error
 Rotational temperatures (Kelvin)      0.10924     0.05960     0.05676
 Rotational constants (GHZ):           2.27610     1.24178     1.18271
    1 imaginary frequencies ignored.
 Zero-point vibrational energy     556109.7 (Joules/Mol)
                                  132.91340 (Kcal/Mol)
 Warning -- explicit consideration of  10 degrees of freedom as
           vibrations may cause significant error
 Vibrational temperatures:    146.19   236.85   239.69   301.26   414.72
          (Kelvin)            477.70   660.67   693.38   838.96   889.71
                             1094.30  1096.52  1116.25  1165.52  1190.65
                             1213.72  1230.37  1259.25  1293.97  1311.88
                             1343.76  1351.73  1372.30  1405.91  1406.06
                             1436.21  1441.64  1507.43  1517.80  1565.21
                             1568.10  1607.20  1635.23  1643.97  1657.13
                             1748.47  1789.48  1843.91  1887.15  1890.45
                             1898.11  1909.96  1970.55  1991.87  2080.04
                             2117.29  2133.76  2142.53  2149.30  2157.48
                             2171.33  4295.89  4310.79  4312.27  4385.25
                             4389.90  4407.01  4454.60  4472.41  4552.90
                             4579.03  4579.20  4587.51  4604.01  4625.52

 Zero-point correction=                           0.211811 (Hartree/Particle)
 Thermal correction to Energy=                    0.220121
 Thermal correction to Enthalpy=                  0.221065
 Thermal correction to Gibbs Free Energy=         0.178999
 Sum of electronic and zero-point Energies=           -389.321975
 Sum of electronic and thermal Energies=              -389.313665
 Sum of electronic and thermal Enthalpies=            -389.312721
 Sum of electronic and thermal Free Energies=         -389.354787

                     E (Thermal)             CV                S
                      KCal/Mol        Cal/Mol-Kelvin    Cal/Mol-Kelvin
 Total                  138.128             34.530             88.535
 Electronic               0.000              0.000              0.000
 Translational            0.889              2.981             40.593
 Rotational               0.889              2.981             28.954
 Vibrational            136.350             28.569             18.988
 Vibration     1          0.604              1.948              3.423
 Vibration     2          0.623              1.886              2.496
 Vibration     3          0.624              1.884              2.474
 Vibration     4          0.642              1.826              2.049
 Vibration     5          0.685              1.696              1.484
 Vibration     6          0.714              1.612              1.250
 Vibration     7          0.817              1.341              0.768
 Vibration     8          0.838              1.290              0.705
 Vibration     9          0.940              1.068              0.480
 Vibration    10          0.978              0.993              0.419

 Optimization completed.
    -- Stationary point found.
 Normal termination of Gaussian 16 at Tue Sep  6 23:21:27 2022.
