 Gaussian 16, Revision C.01,
 Gaussian 16:  AS64L-G16RevC.01  3-Jul-2019

 ---------------------------------------------
 # B3LYP/def2tzvp opt=(ts,calcfc,noeigen) freq
 ---------------------------------------------

 ----------------
 TS2_crest_conf_1
 ----------------
 Symbolic Z-matrix:
 Charge =  0 Multiplicity = 1

 SCF Done:  E(RB3LYP) =  -350.237627659     A.U. after   13 cycles
 SCF Done:  E(RB3LYP) =  -350.239906928     A.U. after   11 cycles
 SCF Done:  E(RB3LYP) =  -350.239898019     A.U. after    9 cycles
 SCF Done:  E(RB3LYP) =  -350.239889107     A.U. after    7 cycles
 Optimization completed.
    -- Stationary point found.
 Normal termination of Gaussian 16 at Tue Sep  6 23:07:20 2022.

 --------------------------------------------------------------------
 #N Geom=AllCheck Guess=TCheck SCRF=Check GenChk RB3LYP/def2TZVP Freq
 --------------------------------------------------------------------

 Structure from the checkpoint file:  "/tmp/Gau-984837.chk"
 ----------------
 TS2_crest_conf_1
 ----------------
 Charge =  0 Multiplicity = 1

                         Standard orientation:
 ---------------------------------------------------------------------
 Center     Atomic      Atomic             Coordinates (Angstroms)
 Number     Number       Type             X           Y           Z
 ---------------------------------------------------------------------
      1          6           0        0.650365    1.136136    0.292540
      2          6           0        1.873618    0.651958   -0.470956
      3          6           0        1.868420   -0.683340   -0.440147
      4          6           0        0.639809   -1.121480    0.342800
      5          6           0        0.559392    0.030408    1.368711
      6          6           0       -0.553801    0.774577   -0.627299
      7          6           0       -0.553630   -0.792575   -0.603979
      8          6           0       -1.990684   -0.775299   -0.009844
      9          6           0       -1.975447    0.776539    0.005668
     10          1           0        0.669365    2.168691    0.638567
     11          1           0        2.543862    1.288728   -1.032255
     12          1           0        2.532528   -1.350608   -0.972595
     13          1           0        0.648019   -2.137790    0.734286
     14          1           0        1.412636    0.041393    2.046403
     15          1           0       -0.360751    0.045793    1.953025
     16          1           0       -0.487147    1.256397   -1.601763
     17          1           0       -0.459462   -1.308581   -1.558583
     18          1           0       -2.106560   -1.264704    0.958686
     19          1           0       -2.733927   -1.192350   -0.689570
     20          1           0       -2.025928    1.231928    0.995688
     21          1           0       -2.740888    1.239563   -0.616864
 ---------------------------------------------------------------------

 SCF Done:  E(RB3LYP) =  -350.239889107     A.U. after    1 cycles

 The electronic state is 1-A.
 Alpha  occ. eigenvalues --  -10.17525 -10.17516 -10.16952 -10.16919 -10.16364
 Alpha  occ. eigenvalues --  -10.16339 -10.16306 -10.16299 -10.16277  -0.89134
 Alpha  occ. eigenvalues --   -0.80912  -0.72019  -0.70678  -0.65993  -0.63099
 Alpha  occ. eigenvalues --   -0.55530  -0.53289  -0.51392  -0.50850  -0.49836
 Alpha  occ. eigenvalues --   -0.46270  -0.41671  -0.39480  -0.37864  -0.37364
 Alpha  occ. eigenvalues --   -0.36521  -0.34285  -0.33866  -0.32912  -0.30962
 Alpha  occ. eigenvalues --   -0.29127  -0.28592  -0.24191
 Alpha virt. eigenvalues --    0.00679   0.03971   0.05305   0.06069   0.06169
 Alpha virt. eigenvalues --    0.08469   0.08872   0.09538   0.09849   0.10571
 Alpha virt. eigenvalues --    0.12792   0.13000   0.13839   0.14014   0.15619

 Mulliken charges:
               1
     1  C    0.000059
     2  C   -0.192838
     3  C   -0.193135
     4  C    0.004610
     5  C   -0.187926
     6  C   -0.017046
     7  C   -0.028346
     8  C   -0.179728
     9  C   -0.204291
    10  H    0.077966
    11  H    0.104879
    12  H    0.105108
    13  H    0.078548
    14  H    0.085906
    15  H    0.095132
    16  H    0.058488
    17  H    0.059304
    18  H    0.077357
    19  H    0.086141
    20  H    0.083053
    21  H    0.086756
 Sum of Mulliken charges =  -0.00000

 Dipole moment (field-independent basis, Debye):
    X=             -0.3099    Y=              0.0021    Z=             -0.1759  Tot=              0.3564
 Quadrupole moment (field-independent basis, Debye-Ang):
   XX=            -56.9597   YY=            -54.6304   ZZ=            -55.5337
   XY=             -0.0229   XZ=             -0.5588   YZ=             -0.0423

  Exact polarizability:     104.031      -0.025      94.410      -2.352      -0.127      83.142
 Approx polarizability:     140.347      -0.019     154.211      -3.320      -0.499     127.839

                      1                      2                      3
                      A                      A                      A
 Frequencies --    180.5057               274.8435               327.0125
 Red. masses --      2.0909                 2.8322                 2.3026
 Frc consts  --      0.0401                 0.1261                 0.1451
 IR Inten    --      0.0103                 0.1973                 0.4016

                      4                      5                      6
                      A                      A                      A
 Frequencies --    409.7859               461.9593               520.6225
 Red. masses --      2.8299                 3.4946                 1.8845
 Frc consts  --      0.2800                 0.4394                 0.3010
 IR Inten    --      3.2006                 0.1005                 1.0031

                      7                      8                      9
                      A                      A                      A
 Frequencies --    641.5984               705.7805               741.8147
 Red. masses --      3.3139                 1.5847                 2.3278
 Frc consts  --      0.8037                 0.4651                 0.7547
 IR Inten    --      1.2564                30.0321                 3.6258

                     10                     11                     12
                      A                      A                      A
 Frequencies --    748.8387               781.7807               793.4169
 Red. masses --      1.4788                 2.6896                 3.6276
 Frc consts  --      0.4886                 0.9685                 1.3455
 IR Inten    --     16.7189                 0.2805                 0.3225

                     13                     14                     15
                      A                      A                      A
 Frequencies --    843.6272               865.5590               893.5447
 Red. masses --      2.2634                 2.7066                 2.4575
 Frc consts  --      0.9491                 1.1947                 1.1560
 IR Inten    --      7.5864                 1.5948                 0.0458

                     16                     17                     18
                      A                      A                      A
 Frequencies --    908.4157               919.5322               939.8611
 Red. masses --      2.6000                 2.4334                 1.5816
 Frc consts  --      1.2642                 1.2123                 0.8231
 IR Inten    --      1.6974                 2.4411                 2.9904

                     19                     20                     21
                      A                      A                      A
 Frequencies --    955.0031               969.1938               975.1840
 Red. masses --      3.2112                 1.5841                 1.9513
 Frc consts  --      1.7255                 0.8767                 1.0933
 IR Inten    --      0.3988                 0.4456                 1.4537

                     22                     23                     24
                      A                      A                      A
 Frequencies --    995.8839              1011.9386              1035.2951
 Red. masses --      2.1534                 1.7480                 1.8363
 Frc consts  --      1.2583                 1.0547                 1.1596
 IR Inten    --      0.0185                 2.5701                 0.0373

                     25                     26                     27
                      A                      A                      A
 Frequencies --   1058.2560              1099.8372              1124.8027
 Red. masses --      1.4000                 1.4996                 1.2891
 Frc consts  --      0.9238                 1.0688                 0.9609
 IR Inten    --      0.2540                 1.4182                 1.2450

                     28                     29                     30
                      A                      A                      A
 Frequencies --   1136.0151              1156.4749              1191.1531
 Red. masses --      1.1524                 1.4239                 2.0480
 Frc consts  --      0.8762                 1.1220                 1.7121
 IR Inten    --      0.0061                 0.5690                 0.0248

                     31                     32                     33
                      A                      A                      A
 Frequencies --   1232.5942              1238.3913              1251.5961
 Red. masses --      1.3504                 1.3836                 1.3133
 Frc consts  --      1.2088                 1.2502                 1.2121
 IR Inten    --      0.4875                 0.7655                 2.4382

                     34                     35                     36
                      A                      A                      A
 Frequencies --   1264.1910              1266.5090              1274.6970
 Red. masses --      1.3482                 1.5901                 1.4589
 Frc consts  --      1.2695                 1.5027                 1.3966
 IR Inten    --      0.0076                 0.4189                 1.5793

                     37                     38                     39
                      A                      A                      A
 Frequencies --   1287.9233              1300.6848              1321.3347
 Red. masses --      1.3501                 1.5708                 1.5335
 Frc consts  --      1.3195                 1.5657                 1.5775
 IR Inten    --      1.8180                 1.3327                 0.1744

                     40                     41                     42
                      A                      A                      A
 Frequencies --   1332.2828              1356.4713              1480.5012
 Red. masses --      1.3891                 1.6761                 1.0806
 Frc consts  --      1.4527                 1.8171                 1.3955
 IR Inten    --      3.3025                 9.0487                 2.1339

                     43                     44                     45
                      A                      A                      A
 Frequencies --   1492.8455              1514.5155              1628.1448
 Red. masses --      1.1182                 1.1029                 5.6261
 Frc consts  --      1.4682                 1.4905                 8.7871
 IR Inten    --      4.0649                 7.6637                 3.1559

                     46                     47                     48
                      A                      A                      A
 Frequencies --   3047.3352              3053.7465              3065.4840
 Red. masses --      1.0583                 1.0604                 1.0589
 Frc consts  --      5.7900                 5.8263                 5.8628
 IR Inten    --     43.0235                43.2643                37.2545

                     49                     50                     51
                      A                      A                      A
 Frequencies --   3072.8408              3084.5663              3088.0503
 Red. masses --      1.0936                 1.0907                 1.1012
 Frc consts  --      6.0842                 6.1140                 6.1869
 IR Inten    --      7.6098                19.5857                 3.8904

                     52                     53                     54
                      A                      A                      A
 Frequencies --   3094.7681              3099.2603              3105.2370
 Red. masses --      1.0867                 1.0901                 1.1041
 Frc consts  --      6.1319                 6.1692                 6.2726
 IR Inten    --     80.7896                14.0973                80.7471

                     55                     56                     57
                      A                      A                      A
 Frequencies --   3111.6807              3185.6925              3209.4762
 Red. masses --      1.1064                 1.0860                 1.1047
 Frc consts  --      6.3116                 6.4935                 6.7047
 IR Inten    --     21.7181                 8.3855                17.6568

 - Thermochemistry -
 -------------------
 Temperature   298.150 Kelvin.  Pressure   1.00000 Atm.
 Atom     1 has atomic number  6 and mass  12.00000

 Molecular mass:   120.09390 amu.
 Principal axes and moments of inertia in atomic units:
                           1         2         3
     Eigenvalues --   537.973521062.237861186.95424
           X            0.99999  -0.00008  -0.00538
           Y            0.00010   1.00000   0.00203
           Z            0.00538  -0.00203   0.99998
 This molecule is an asymmetric top.
 Rotational symmetry number  1.
 Warning -- assumption of classical behavior for rotation
           may cause significant error
 Rotational temperatures (Kelvin)      0.16100     0.08154     0.07297
 Rotational constants (GHZ):           3.35470     1.69900     1.52048
 Zero-point vibrational energy     491236.7 (Joules/Mol)
                                  117.40838 (Kcal/Mol)
 Warning -- explicit consideration of   6 degrees of freedom as
           vibrations may cause significant error
 Vibrational temperatures:    259.71   395.44   470.50   589.59   664.66
          (Kelvin)            749.06   923.12  1015.46  1067.31  1077.41
                             1124.81  1141.55  1213.79  1245.35  1285.61
                             1307.01  1323.00  1352.25  1374.04  1394.45
                             1403.07  1432.85  1455.95  1489.56  1522.59
                             1582.42  1618.34  1634.47  1663.91  1713.80
                             1773.43  1781.77  1800.77  1818.89  1822.22
                             1834.00  1853.03  1871.40  1901.11  1916.86
                             1951.66  2130.11  2147.87  2179.05  2342.54
                             4384.44  4393.66  4410.55  4421.13  4438.00
                             4443.02  4452.68  4459.14  4467.74  4477.01
                             4583.50  4617.72

 Zero-point correction=                           0.187102 (Hartree/Particle)
 Thermal correction to Energy=                    0.193584
 Thermal correction to Enthalpy=                  0.194528
 Thermal correction to Gibbs Free Energy=         0.156747
 Sum of electronic and zero-point Energies=           -350.052787
 Sum of electronic and thermal Energies=              -350.046306
 Sum of electronic and thermal Enthalpies=            -350.045361
 Sum of electronic and thermal Free Energies=         -350.083143

                     E (Thermal)             CV                S
                      KCal/Mol        Cal/Mol-Kelvin    Cal/Mol-Kelvin
 Total                  121.476             28.693             79.517
 Electronic               0.000              0.000              0.000
 Translational            0.889              2.981             40.264
 Rotational               0.889              2.981             28.008
 Vibrational            119.698             22.732             11.246
 Vibration     1          0.629              1.866              2.323
 Vibration     2          0.677              1.720              1.566
 Vibration     3          0.711              1.621              1.275
 Vibration     4          0.774              1.449              0.927
 Vibration     5          0.820              1.334              0.760
 Vibration     6          0.876              1.204              0.609

                           ! Non-Optimized Parameters !
 Normal termination of Gaussian 16 at Tue Sep  6 23:12:48 2022.
