   * xtb version 6.3.3 (7355c4f) compiled by 'conda@14e9545d6667' on 2020-09-17
          program call               : xtb /home/svss/Project-DBcg-Debug/aqme2_20220329/20220906-example-end-to-end/End-to-end_Workflows/End-to-end workflow 2, SN2 PES/AQME inputs/CSEARCH/crest_xyz/TS2_crest/TS2_crest_xtb1.xyz --opt --input constrain2.inp -c 0 --uhf 0 -P 8
          number of atoms            :                    21
          number of electrons        :                    48
          charge                     :                     0
          spin                       :                   0.0

   ID    Z sym.   atoms
    1    6 C      1-9
    2    1 H      10-21
constraining bond 4 6 to    2.4000000 Å, actual value:    5.3593317 Å
constraining bond 1 7 to    2.4000000 Å, actual value:    5.5473695 Å
########################################################################
[WARNING] Please study the warnings concerning your input carefully
-1- prog_main_parseArguments: Process number higher than OMP_NUM_THREADS, I hope you know what you are doing.
########################################################################

          :  Hamiltonian                  GFN2-xTB          :
 * total energy  :   -25.3199648 Eh     change       -0.6394885E-13 Eh
 * total energy  :   -25.3528547 Eh     change       -0.3288989E-01 Eh
 * total energy  :   -25.3612597 Eh     change       -0.8405047E-02 Eh
 * total energy  :   -25.3620284 Eh     change       -0.7686248E-03 Eh
 * total energy  :   -25.3621102 Eh     change       -0.8180788E-04 Eh
 * total energy  :   -25.3621235 Eh     change       -0.1335093E-04 Eh
 * total energy  :   -25.3621251 Eh     change       -0.1548525E-05 Eh
   *** GEOMETRY OPTIMIZATION CONVERGED AFTER 7 ITERATIONS ***

 final structure:
================
21
 xtb: 6.3.3 (7355c4f)
C         0.14865228118198   -1.09334584163441    1.56776256358220
C         1.29950531584922   -0.52442600211081    0.77256863341051
C         1.17965691091639    0.79697489777454    0.79229046152646
C        -0.05262182852686    1.12585034232757    1.60086275317752
C        -0.93712732069316   -0.06784937322325    1.23227952280006
C         0.49303181861692   -0.73478772465452    3.02008455944134
C         0.35448462987354    0.79228168344360    3.04287206374638
C        -0.77371727474005    0.67611906003310    4.08455412288782
C        -0.63474604004572   -0.85440387819846    4.06182230922527
H        -0.08386458071474   -2.14262132786666    1.39718537134537
H         2.09041364447357   -1.11526225243345    0.34805053518710
H         1.85024603758353    1.53276362612925    0.38759205688236
H        -0.47051673597872    2.12077059706603    1.46074346913639
H        -1.19992210645577   -0.07592358946558    0.17498773951654
H        -1.84151701331430   -0.15875738580744    1.82673942104347
H         1.44612337365165   -1.16304998806615    3.32935819973410
H         1.21575901461253    1.37565762569536    3.36735960587096
H        -1.73638274958674    1.06479425699335    3.75819435544187
H        -0.52676060419481    1.12558049001577    5.04433439740056
H        -1.51259836866678   -1.40033875910217    3.72179004283758
H        -0.30809740384200   -1.28002645691610    5.00856681580678

          :  Hamiltonian                  GFN2-xTB          :
         :: total energy             -25.362125073836 Eh    ::
         :: gradient norm              0.000380519493 Eh/a0 ::
         :: HOMO-LUMO gap              4.990054443382 eV    ::
         :: SCC energy               -25.754967607858 Eh    ::
         :: -> dispersion             -0.017715433697 Eh    ::
         :: repulsion energy           0.392740357840 Eh    ::

    * Orbital Energies and Occupations

         #    Occupation            Energy/Eh            Energy/eV
      -------------------------------------------------------------
         1        2.0000           -0.6551512             -17.8276
       ...           ...                  ...                  ...
        12        2.0000           -0.5107654             -13.8986
        13        2.0000           -0.4832964             -13.1512
        14        2.0000           -0.4749598             -12.9243
        15        2.0000           -0.4624788             -12.5847
        16        2.0000           -0.4532732             -12.3342
        17        2.0000           -0.4508112             -12.2672
        18        2.0000           -0.4413140             -12.0088
        19        2.0000           -0.4384778             -11.9316
        20        2.0000           -0.4331503             -11.7866
        21        2.0000           -0.4170974             -11.3498
        22        2.0000           -0.4108067             -11.1786
        23        2.0000           -0.4024538             -10.9513
        24        2.0000           -0.3824737             -10.4076 (HOMO)
        25                         -0.1990926              -5.4176 (LUMO)
        26                          0.0274364               0.7466
        27                          0.0330533               0.8994
        28                          0.0590661               1.6073
        29                          0.0722150               1.9651
        30                          0.0902405               2.4556
        31                          0.0913848               2.4867
        32                          0.1137069               3.0941
        33                          0.1217268               3.3124
        34                          0.1295290               3.5247
        35                          0.1428558               3.8873
       ...                                ...                  ...
        48                          0.6745449              18.3553
      -------------------------------------------------------------
                  HL-Gap            0.1833811 Eh            4.9901 eV

     #   Z          covCN         q      C6AA      α(0)
     1   6 C        4.039    -0.017    20.796     6.478
     2   6 C        3.002    -0.043    29.044     8.840
     3   6 C        3.002    -0.043    29.044     8.840
     4   6 C        4.038    -0.017    20.796     6.478
     5   6 C        3.919    -0.060    21.580     6.602
     6   6 C        4.074    -0.020    20.846     6.485
     7   6 C        4.074    -0.020    20.846     6.485
     8   6 C        3.972    -0.060    21.569     6.599
     9   6 C        3.972    -0.060    21.569     6.599
    10   1 H        0.925     0.025     2.661     2.551
    11   1 H        0.926     0.026     2.639     2.541
    12   1 H        0.926     0.026     2.639     2.541
    13   1 H        0.925     0.025     2.661     2.551
    14   1 H        0.925     0.030     2.585     2.514
    15   1 H        0.925     0.039     2.467     2.456
    16   1 H        0.925     0.021     2.711     2.575
    17   1 H        0.925     0.021     2.711     2.575
    18   1 H        0.925     0.032     2.553     2.499
    19   1 H        0.925     0.029     2.594     2.518
    20   1 H        0.925     0.032     2.553     2.499
    21   1 H        0.925     0.029     2.594     2.518

Wiberg/Mayer (AO) data.
largest (>0.10) Wiberg bond orders for each atom

     #   Z sym  total        # sym  WBO       # sym  WBO       # sym  WBO
 ---------------------------------------------------------------------------
     1   6 C    3.993 --     2 C    1.006     5 C    0.989    10 H    0.971
                             6 C    0.965
     2   6 C    3.986 --     3 C    1.919     1 C    1.006    11 H    0.972
     3   6 C    3.986 --     2 C    1.919     4 C    1.006    12 H    0.972
     4   6 C    3.993 --     3 C    1.006     5 C    0.989    13 H    0.971
                             7 C    0.965
     5   6 C    3.995 --     1 C    0.989     4 C    0.989    14 H    0.979
                            15 H    0.973
     6   6 C    3.988 --     9 C    0.988     7 C    0.988    16 H    0.975
                             1 C    0.965
     7   6 C    3.988 --     8 C    0.988     6 C    0.988    17 H    0.975
                             4 C    0.965
     8   6 C    3.993 --     9 C    1.007     7 C    0.988    19 H    0.982
                            18 H    0.979
     9   6 C    3.993 --     8 C    1.007     6 C    0.988    21 H    0.982
                            20 H    0.979
    10   1 H    0.999 --     1 C    0.971
    11   1 H    0.999 --     2 C    0.972
    12   1 H    0.999 --     3 C    0.972
    13   1 H    0.999 --     4 C    0.971
    14   1 H    0.999 --     5 C    0.979
    15   1 H    0.999 --     5 C    0.973
    16   1 H    1.000 --     6 C    0.975
    17   1 H    1.000 --     7 C    0.975
    18   1 H    0.999 --     8 C    0.979
    19   1 H    0.999 --     8 C    0.982
    20   1 H    0.999 --     9 C    0.979
    21   1 H    0.999 --     9 C    0.982
 ---------------------------------------------------------------------------

molecular dipole:
                 x           y           z       tot (Debye)
 q only:       -0.141      -0.014       0.092
   full:       -0.085      -0.010       0.137       0.411

           -------------------------------------------------
          | TOTAL ENERGY              -25.362125073836 Eh   |
          | GRADIENT NORM               0.000380519493 Eh/α |
          | HOMO-LUMO GAP               4.990054443382 eV   |
           -------------------------------------------------

 * finished run on 2022/09/06 at 17:46:06.247
