   * xtb version 6.3.3 (7355c4f) compiled by 'conda@14e9545d6667' on 2020-09-17
          program call               : xtb /home/svss/Project-DBcg-Debug/aqme2_20220329/20220906-example-end-to-end/End-to-end_Workflows/End-to-end workflow 2, SN2 PES/AQME inputs/CSEARCH/crest_xyz/TS2_crest/TS2_crest.xyz --opt --input constrain1.inp -c 0 --uhf 0 -P 8
          number of atoms            :                    21
          number of electrons        :                    48
          charge                     :                     0
          spin                       :                   0.0

   ID    Z sym.   atoms
    1    6 C      1-9
    2    1 H      10-21
constraining bond 4 6 to    2.4000000 Å, actual value:    5.3593317 Å
constraining bond 1 7 to    2.4000000 Å, actual value:    5.5473695 Å
constraining bond 1 2 to    1.3210000 Å, actual value:    1.3206555 Å
constraining bond 2 3 to    1.4510000 Å, actual value:    1.4511845 Å
constraining bond 3 4 to    1.3240000 Å, actual value:    1.3236961 Å
constraining bond 4 5 to    1.4950000 Å, actual value:    1.4946407 Å
constraining bond 5 1 to    1.4940000 Å, actual value:    1.4937654 Å
constraining bond 6 7 to    1.3890000 Å, actual value:    1.3885047 Å
constraining bond 7 8 to    1.4920000 Å, actual value:    1.4918217 Å
constraining bond 8 9 to    1.4380000 Å, actual value:    1.4381738 Å
constraining bond 9 6 to    1.4910000 Å, actual value:    1.4905526 Å
constraining bond 1 10 to    1.0840000 Å, actual value:    1.0836421 Å
constraining bond 2 11 to    1.0800000 Å, actual value:    1.0804929 Å
constraining bond 3 12 to    1.0820000 Å, actual value:    1.0816885 Å
constraining bond 4 13 to    1.0840000 Å, actual value:    1.0841736 Å
constraining bond 5 14 to    1.1070000 Å, actual value:    1.1071322 Å
constraining bond 5 15 to    1.1080000 Å, actual value:    1.1079134 Å
constraining bond 6 16 to    1.0830000 Å, actual value:    1.0830174 Å
constraining bond 7 17 to    1.0800000 Å, actual value:    1.0797783 Å
constraining bond 8 18 to    1.1130000 Å, actual value:    1.1125713 Å
constraining bond 8 19 to    1.1140000 Å, actual value:    1.1135013 Å
constraining bond 9 20 to    1.1110000 Å, actual value:    1.1114676 Å
constraining bond 9 21 to    1.1130000 Å, actual value:    1.1131719 Å

          :  Hamiltonian                  GFN2-xTB          :
 * total energy  :     8.0674720 Eh     change       -0.2330452E-08 Eh
 * total energy  :    -1.3574313 Eh     change       -0.9424903E+01 Eh
 * total energy  :    -8.6723607 Eh     change       -0.7314929E+01 Eh
 * total energy  :   -13.9899411 Eh     change       -0.5317580E+01 Eh
 * total energy  :   -17.6056679 Eh     change       -0.3615727E+01 Eh
 * total energy  :   -20.0649149 Eh     change       -0.2459247E+01 Eh
 * total energy  :   -21.8013114 Eh     change       -0.1736396E+01 Eh
 * total energy  :   -23.0235601 Eh     change       -0.1222249E+01 Eh
 * total energy  :   -23.7838558 Eh     change       -0.7602957E+00 Eh
 * total energy  :   -24.1279648 Eh     change       -0.3441090E+00 Eh
 * total energy  :   -25.3037612 Eh     change       -0.1157998E-03 Eh
 * total energy  :   -25.3038268 Eh     change       -0.6560081E-04 Eh
 * total energy  :   -25.3038580 Eh     change       -0.3126704E-04 Eh
 * total energy  :   -25.3038724 Eh     change       -0.1436523E-04 Eh
 * total energy  :   -25.3038788 Eh     change       -0.6386870E-05 Eh
 * total energy  :   -25.3038751 Eh     change        0.3686823E-05 Eh
 * total energy  :   -25.3038808 Eh     change       -0.5737505E-05 Eh
 * total energy  :   -25.3038809 Eh     change       -0.9467249E-07 Eh
 * total energy  :   -25.3038821 Eh     change       -0.1157787E-05 Eh
   *** GEOMETRY OPTIMIZATION CONVERGED AFTER 42 ITERATIONS ***

 final structure:
================
21
 xtb: 6.3.3 (7355c4f)
C         0.16784520364489   -1.07889863907849    1.51563371952409
C         1.22814205825688   -0.57770075505365    0.80438854064006
C         1.10165705043789    0.83430060328158    0.82505224384756
C        -0.03068334614422    1.11812821271083    1.54885696640545
C        -0.90755292308077   -0.06460153068196    1.23433463861765
C         0.50129338769633   -0.68182397414784    3.03764852856794
C         0.37196332887170    0.74195419944120    3.05904664176520
C        -0.74884922320954    0.64102208670936    4.05498389208856
C        -0.61505231697307   -0.81557119573336    4.03354189223993
H        -0.09633600925718   -2.12730726075163    1.41547579802282
H         2.07856878747323   -1.11450950461907    0.41398525012993
H         1.84128680977039    1.52688303625829    0.45015029795736
H        -0.47753167120798    2.10506566977686    1.47783620903792
H        -1.21297074304637   -0.07632096397568    0.17371762365181
H        -1.82066184651284   -0.15695452149273    1.84667470153157
H         1.44169553715202   -1.14720344105122    3.31513312098475
H         1.21126917050703    1.35962284028532    3.35405953343794
H        -1.72022308808507    1.06032495205256    3.72440162835848
H        -0.51958427922915    1.11541170795956    5.03099086970010
H        -1.49362019178563   -1.39371435004123    3.68888495763253
H        -0.30065469527888   -1.26810717184914    4.99520194585896

          :  Hamiltonian                  GFN2-xTB          :
         :: total energy             -25.303882094143 Eh    ::
         :: gradient norm              0.000813133942 Eh/a0 ::
         :: HOMO-LUMO gap              3.979933476089 eV    ::
         :: SCC energy               -25.745818167853 Eh    ::
         :: -> dispersion             -0.017937975499 Eh    ::
         :: repulsion energy           0.425717880194 Eh    ::

    * Orbital Energies and Occupations

         #    Occupation            Energy/Eh            Energy/eV
      -------------------------------------------------------------
         1        2.0000           -0.6654250             -18.1071
       ...           ...                  ...                  ...
        12        2.0000           -0.5204387             -14.1619
        13        2.0000           -0.4865878             -13.2407
        14        2.0000           -0.4826808             -13.1344
        15        2.0000           -0.4598652             -12.5136
        16        2.0000           -0.4563346             -12.4175
        17        2.0000           -0.4474834             -12.1766
        18        2.0000           -0.4438697             -12.0783
        19        2.0000           -0.4432097             -12.0603
        20        2.0000           -0.4344848             -11.8229
        21        2.0000           -0.4212426             -11.4626
        22        2.0000           -0.4121625             -11.2155
        23        2.0000           -0.4082875             -11.1101
        24        2.0000           -0.3604049              -9.8071 (HOMO)
        25                         -0.2141450              -5.8272 (LUMO)
        26                         -0.0144506              -0.3932
        27                          0.0704674               1.9175
        28                          0.0758483               2.0639
        29                          0.0972455               2.6462
        30                          0.1057259               2.8769
        31                          0.1117100               3.0398
        32                          0.1343598               3.6561
        33                          0.1479437               4.0258
        34                          0.1488076               4.0493
        35                          0.1561730               4.2497
       ...                                ...                  ...
        48                          0.6610348              17.9877
      -------------------------------------------------------------
                  HL-Gap            0.1462599 Eh            3.9799 eV

     #   Z          covCN         q      C6AA      α(0)
     1   6 C        4.098    -0.007    20.621     6.450
     2   6 C        3.118    -0.050    29.069     8.831
     3   6 C        3.118    -0.050    29.074     8.832
     4   6 C        4.097    -0.007    20.625     6.451
     5   6 C        4.049    -0.053    21.448     6.578
     6   6 C        4.236    -0.016    20.776     6.474
     7   6 C        4.235    -0.016    20.780     6.474
     8   6 C        4.119    -0.050    21.383     6.568
     9   6 C        4.119    -0.050    21.386     6.568
    10   1 H        0.925     0.022     2.696     2.568
    11   1 H        0.926     0.021     2.711     2.575
    12   1 H        0.926     0.021     2.715     2.577
    13   1 H        0.925     0.023     2.694     2.567
    14   1 H        0.923     0.029     2.606     2.525
    15   1 H        0.923     0.032     2.554     2.499
    16   1 H        0.925     0.020     2.726     2.582
    17   1 H        0.925     0.021     2.717     2.578
    18   1 H        0.922     0.029     2.606     2.525
    19   1 H        0.922     0.027     2.633     2.538
    20   1 H        0.922     0.029     2.602     2.523
    21   1 H        0.922     0.027     2.630     2.536

Wiberg/Mayer (AO) data.
largest (>0.10) Wiberg bond orders for each atom

     #   Z sym  total        # sym  WBO       # sym  WBO       # sym  WBO
 ---------------------------------------------------------------------------
     1   6 C    3.994 --     2 C    1.097     5 C    0.984    10 H    0.968
                             6 C    0.882
     2   6 C    3.984 --     3 C    1.776     1 C    1.097    11 H    0.973
     3   6 C    3.984 --     2 C    1.776     4 C    1.096    12 H    0.973
     4   6 C    3.994 --     3 C    1.096     5 C    0.983    13 H    0.968
                             7 C    0.883
     5   6 C    3.995 --     1 C    0.984     4 C    0.983    14 H    0.974
                            15 H    0.972
     6   6 C    3.985 --     7 C    1.028     9 C    0.989    16 H    0.973
                             1 C    0.882
     7   6 C    3.985 --     6 C    1.028     8 C    0.989    17 H    0.973
                             4 C    0.883
     8   6 C    3.991 --     9 C    1.012     7 C    0.989    19 H    0.975
                            18 H    0.973
     9   6 C    3.991 --     8 C    1.012     6 C    0.989    21 H    0.975
                            20 H    0.973
    10   1 H    0.999 --     1 C    0.968
    11   1 H    1.000 --     2 C    0.973
    12   1 H    1.000 --     3 C    0.973
    13   1 H    0.999 --     4 C    0.968
    14   1 H    0.999 --     5 C    0.974
    15   1 H    0.999 --     5 C    0.972
    16   1 H    1.000 --     6 C    0.973
    17   1 H    1.000 --     7 C    0.973
    18   1 H    0.999 --     8 C    0.973
    19   1 H    0.999 --     8 C    0.975
    20   1 H    0.999 --     9 C    0.973
    21   1 H    0.999 --     9 C    0.975
 ---------------------------------------------------------------------------

molecular dipole:
                 x           y           z       tot (Debye)
 q only:       -0.186      -0.020       0.179
   full:       -0.143      -0.017       0.261       0.757

           -------------------------------------------------
          | TOTAL ENERGY              -25.303882094143 Eh   |
          | GRADIENT NORM               0.000813133942 Eh/α |
          | HOMO-LUMO GAP               3.979933476089 eV   |
           -------------------------------------------------

 * finished run on 2022/09/06 at 17:46:03.802
