 Gaussian 16, Revision C.01,
 Gaussian 16:  AS64L-G16RevC.01  3-Jul-2019

 -------------------------
 # B3LYP/def2tzvp opt freq
 -------------------------

 ---------------
 P3_crest_conf_1
 ---------------
 Symbolic Z-matrix:
 Charge =  0 Multiplicity = 1

 SCF Done:  E(RB3LYP) =  -389.591093473     A.U. after   13 cycles
 SCF Done:  E(RB3LYP) =  -389.593289288     A.U. after   11 cycles
 SCF Done:  E(RB3LYP) =  -389.593688442     A.U. after   10 cycles
 SCF Done:  E(RB3LYP) =  -389.593742120     A.U. after    9 cycles
 SCF Done:  E(RB3LYP) =  -389.593748464     A.U. after    7 cycles
 SCF Done:  E(RB3LYP) =  -389.593749199     A.U. after    6 cycles
 Optimization completed.
    -- Stationary point found.
 Normal termination of Gaussian 16 at Tue Sep  6 23:03:50 2022.

 --------------------------------------------------------------------
 #N Geom=AllCheck Guess=TCheck SCRF=Check GenChk RB3LYP/def2TZVP Freq
 --------------------------------------------------------------------

 Structure from the checkpoint file:  "/tmp/Gau-2694753.chk"
 ---------------
 P3_crest_conf_1
 ---------------
 Charge =  0 Multiplicity = 1

                         Standard orientation:
 ---------------------------------------------------------------------
 Center     Atomic      Atomic             Coordinates (Angstroms)
 Number     Number       Type             X           Y           Z
 ---------------------------------------------------------------------
      1          6           0        0.261705   -0.783164   -0.848878
      2          6           0       -1.104638   -1.125289   -0.153622
      3          6           0       -1.035139   -0.667204    1.291829
      4          6           0       -1.035156    0.667232    1.291813
      5          6           0       -1.104648    1.125279   -0.153650
      6          6           0       -1.984539   -0.000016   -0.744514
      7          6           0        0.261701    0.783147   -0.848893
      8          6           0        1.568061    1.224318   -0.159269
      9          6           0        2.092713    0.000009    0.616314
     10          6           0        1.568072   -1.224313   -0.159255
     11          1           0        0.220064   -1.177085   -1.865957
     12          1           0       -1.434118   -2.151038   -0.312706
     13          1           0       -0.905754   -1.318213    2.145616
     14          1           0       -0.905784    1.318263    2.145584
     15          1           0       -1.434138    2.151021   -0.312761
     16          1           0       -2.999291   -0.000015   -0.345082
     17          1           0       -2.016554   -0.000028   -1.836596
     18          1           0        0.220064    1.177049   -1.865979
     19          1           0        2.295395    1.515739   -0.921576
     20          1           0        1.427840    2.094372    0.486432
     21          1           0        3.181831    0.000013    0.695179
     22          1           0        1.698384    0.000013    1.631704
     23          1           0        1.427866   -2.094363    0.486455
     24          1           0        2.295405   -1.515731   -0.921564
 ---------------------------------------------------------------------

 SCF Done:  E(RB3LYP) =  -389.593749199     A.U. after    1 cycles

 The electronic state is 1-A.
 Alpha  occ. eigenvalues --  -10.17381 -10.17379 -10.16761 -10.16743 -10.16371
 Alpha  occ. eigenvalues --  -10.16253 -10.16164 -10.15861 -10.15861 -10.15575
 Alpha  occ. eigenvalues --   -0.88532  -0.80539  -0.73254  -0.72820  -0.67786
 Alpha  occ. eigenvalues --   -0.66942  -0.57325  -0.55829  -0.55488  -0.51625
 Alpha  occ. eigenvalues --   -0.49611  -0.47699  -0.46967  -0.43417  -0.41226
 Alpha  occ. eigenvalues --   -0.39265  -0.37770  -0.36668  -0.34931  -0.34859
 Alpha  occ. eigenvalues --   -0.33158  -0.32204  -0.31606  -0.31507  -0.31100
 Alpha  occ. eigenvalues --   -0.29644  -0.23866
 Alpha virt. eigenvalues --    0.00294   0.02928   0.04994   0.05811   0.06541
 Alpha virt. eigenvalues --    0.07992   0.08422   0.08826   0.09973   0.10437
 Alpha virt. eigenvalues --    0.11205   0.12620   0.13502   0.14093   0.14226

 Mulliken charges:
               1
     1  C   -0.040553
     2  C    0.034991
     3  C   -0.211835
     4  C   -0.211830
     5  C    0.034988
     6  C   -0.180345
     7  C   -0.040549
     8  C   -0.204914
     9  C   -0.157277
    10  C   -0.204913
    11  H    0.068852
    12  H    0.077169
    13  H    0.102307
    14  H    0.102307
    15  H    0.077169
    16  H    0.086659
    17  H    0.080986
    18  H    0.068852
    19  H    0.085873
    20  H    0.084758
    21  H    0.086794
    22  H    0.089882
    23  H    0.084758
    24  H    0.085872
 Sum of Mulliken charges =  -0.00000

 Dipole moment (field-independent basis, Debye):
    X=              0.1883    Y=             -0.0000    Z=             -0.3129  Tot=              0.3652
 Quadrupole moment (field-independent basis, Debye-Ang):
   XX=            -64.4753   YY=            -61.4900   ZZ=            -61.4729
   XY=             -0.0000   XZ=              0.3107   YZ=             -0.0000

  Exact polarizability:     108.186      -0.000     105.190       0.673      -0.000      98.671
 Approx polarizability:     146.371      -0.000     170.151      -0.852      -0.000     151.903

                      1                      2                      3
                      A                      A                      A
 Frequencies --    110.2918               201.5371               239.2106
 Red. masses --      2.5883                 2.1833                 2.3532
 Frc consts  --      0.0186                 0.0522                 0.0793
 IR Inten    --      0.0066                 0.0367                 0.1207

                      4                      5                      6
                      A                      A                      A
 Frequencies --    324.3958               444.0509               469.4530
 Red. masses --      2.4804                 2.4897                 1.8195
 Frc consts  --      0.1538                 0.2892                 0.2363
 IR Inten    --      0.0043                 3.9101                 2.9433

                      7                      8                      9
                      A                      A                      A
 Frequencies --    478.6654               608.6712               619.1039
 Red. masses --      3.5059                 3.2478                 1.8601
 Frc consts  --      0.4733                 0.7089                 0.4201
 IR Inten    --      0.0016                 0.2906                 0.5034

                     10                     11                     12
                      A                      A                      A
 Frequencies --    707.6926               725.8888               751.8815
 Red. masses --      3.2370                 4.1160                 1.7444
 Frc consts  --      0.9552                 1.2778                 0.5810
 IR Inten    --      2.9096                 1.6146                45.7511

                     13                     14                     15
                      A                      A                      A
 Frequencies --    760.2997               802.1574               842.8288
 Red. masses --      2.3782                 3.0319                 2.2612
 Frc consts  --      0.8100                 1.1494                 0.9464
 IR Inten    --      0.5598                 4.0066                 4.8529

                     16                     17                     18
                      A                      A                      A
 Frequencies --    868.1784               886.6293               898.7441
 Red. masses --      2.3212                 2.6071                 2.6383
 Frc consts  --      1.0308                 1.2075                 1.2556
 IR Inten    --      4.3861                 0.1202                 1.1251

                     19                     20                     21
                      A                      A                      A
 Frequencies --    913.8186               943.2224               945.7936
 Red. masses --      2.2690                 2.9939                 1.8359
 Frc consts  --      1.1164                 1.5693                 0.9676
 IR Inten    --      4.7016                 0.1383                 0.0929

                     22                     23                     24
                      A                      A                      A
 Frequencies --    952.9100               965.7482               976.9969
 Red. masses --      1.5265                 2.3109                 2.0629
 Frc consts  --      0.8167                 1.2699                 1.1602
 IR Inten    --      2.9506                 0.6821                 0.4045

                     25                     26                     27
                      A                      A                      A
 Frequencies --    988.4464              1030.9007              1063.1249
 Red. masses --      1.6144                 1.5795                 1.9613
 Frc consts  --      0.9293                 0.9890                 1.3060
 IR Inten    --      1.1648                 0.8779                 0.0483

                     28                     29                     30
                      A                      A                      A
 Frequencies --   1083.1293              1113.5002              1120.9644
 Red. masses --      1.8767                 1.3587                 1.7706
 Frc consts  --      1.2972                 0.9925                 1.3109
 IR Inten    --      0.1805                 0.2483                 0.5225

                     31                     32                     33
                      A                      A                      A
 Frequencies --   1135.2153              1156.6005              1156.8774
 Red. masses --      1.0946                 1.0996                 1.2829
 Frc consts  --      0.8311                 0.8667                 1.0116
 IR Inten    --      0.1708                 0.7226                 3.1136

                     34                     35                     36
                      A                      A                      A
 Frequencies --   1183.3007              1203.2377              1254.1335
 Red. masses --      1.8419                 1.4666                 1.4109
 Frc consts  --      1.5195                 1.2510                 1.3074
 IR Inten    --      0.7415                 0.8632                 1.4994

                     37                     38                     39
                      A                      A                      A
 Frequencies --   1270.7098              1277.5881              1285.4857
 Red. masses --      1.4825                 1.6002                 1.3554
 Frc consts  --      1.4104                 1.5389                 1.3197
 IR Inten    --      1.0472                 1.1501                 1.4482

                     40                     41                     42
                      A                      A                      A
 Frequencies --   1290.9669              1302.6771              1328.9338
 Red. masses --      1.4189                 1.2936                 1.3335
 Frc consts  --      1.3933                 1.2934                 1.3875
 IR Inten    --      0.4938                 0.0415                 1.3599

                     43                     44                     45
                      A                      A                      A
 Frequencies --   1336.3392              1350.4617              1355.1508
 Red. masses --      1.2616                 1.4799                 1.4447
 Frc consts  --      1.3274                 1.5902                 1.5631
 IR Inten    --      1.2824                 1.0020                 1.3877

                     46                     47                     48
                      A                      A                      A
 Frequencies --   1364.0623              1382.9113              1491.1062
 Red. masses --      1.3736                 1.6203                 1.0871
 Frc consts  --      1.5058                 1.8257                 1.4241
 IR Inten    --      2.3947                 6.0886                 6.9067

                     49                     50                     51
                      A                      A                      A
 Frequencies --   1492.3190              1501.2332              1510.6131
 Red. masses --      1.0788                 1.1114                 1.1008
 Frc consts  --      1.4155                 1.4758                 1.4800
 IR Inten    --      2.4758                 3.2710                 7.7539

                     52                     53                     54
                      A                      A                      A
 Frequencies --   1634.7668              3025.8565              3026.5525
 Red. masses --      5.6116                 1.0679                 1.0667
 Frc consts  --      8.8359                 5.7607                 5.7570
 IR Inten    --      1.5735                22.7093                12.7070

                     55                     56                     57
                      A                      A                      A
 Frequencies --   3041.8586              3043.2567              3050.1600
 Red. masses --      1.0608                 1.0796                 1.0699
 Frc consts  --      5.7829                 5.8908                 5.8644
 IR Inten    --     26.2169                48.2789                72.2089

                     58                     59                     60
                      A                      A                      A
 Frequencies --   3058.2340              3063.2309              3063.8735
 Red. masses --      1.0872                 1.0895                 1.1025
 Frc consts  --      5.9912                 6.0231                 6.0978
 IR Inten    --     13.5787                58.0996                 7.2541

                     61                     62                     63
                      A                      A                      A
 Frequencies --   3093.6290              3094.8816              3097.8364
 Red. masses --      1.0868                 1.1001                 1.1020
 Frc consts  --      6.1280                 6.2083                 6.2311
 IR Inten    --     79.0436                 6.8519                90.3937

                     64                     65                     66
                      A                      A                      A
 Frequencies --   3098.8712              3185.4294              3209.3998
 Red. masses --      1.0937                 1.0859                 1.1049
 Frc consts  --      6.1880                 6.4921                 6.7052
 IR Inten    --     18.1694                 7.2975                13.2476

 - Thermochemistry -
 -------------------
 Temperature   298.150 Kelvin.  Pressure   1.00000 Atm.
 Atom     1 has atomic number  6 and mass  12.00000

 Molecular mass:   134.10955 amu.
 Principal axes and moments of inertia in atomic units:
                           1         2         3
     Eigenvalues --   771.020781276.311721368.51181
           X            0.99984   0.00000   0.01810
           Y           -0.00000   1.00000   0.00000
           Z           -0.01810  -0.00000   0.99984
 This molecule is an asymmetric top.
 Rotational symmetry number  1.
 Warning -- assumption of classical behavior for rotation
           may cause significant error
 Rotational temperatures (Kelvin)      0.11234     0.06786     0.06329
 Rotational constants (GHZ):           2.34072     1.41403     1.31876
 Zero-point vibrational energy     569757.4 (Joules/Mol)
                                  136.17528 (Kcal/Mol)
 Warning -- explicit consideration of   9 degrees of freedom as
           vibrations may cause significant error
 Vibrational temperatures:    158.69   289.97   344.17   466.73   638.89
          (Kelvin)            675.44   688.69   875.74   890.75  1018.21
                             1044.39  1081.79  1093.90  1154.13  1212.64
                             1249.12  1275.66  1293.09  1314.78  1357.09
                             1360.79  1371.02  1389.50  1405.68  1422.15
                             1483.24  1529.60  1558.38  1602.08  1612.82
                             1633.32  1664.09  1664.49  1702.51  1731.19
                             1804.42  1828.27  1838.16  1849.53  1857.41
                             1874.26  1912.04  1922.69  1943.01  1949.76
                             1962.58  1989.70  2145.37  2147.11  2159.94
                             2173.44  2352.06  4353.53  4354.53  4376.56
                             4378.57  4388.50  4400.12  4407.31  4408.23
                             4451.04  4452.84  4457.10  4458.58  4583.12
                             4617.61

 Zero-point correction=                           0.217009 (Hartree/Particle)
 Thermal correction to Energy=                    0.224470
 Thermal correction to Enthalpy=                  0.225415
 Thermal correction to Gibbs Free Energy=         0.185265
 Sum of electronic and zero-point Energies=           -389.376740
 Sum of electronic and thermal Energies=              -389.369279
 Sum of electronic and thermal Enthalpies=            -389.368335
 Sum of electronic and thermal Free Energies=         -389.408484

                     E (Thermal)             CV                S
                      KCal/Mol        Cal/Mol-Kelvin    Cal/Mol-Kelvin
 Total                  140.857             32.658             84.501
 Electronic               0.000              0.000              0.000
 Translational            0.889              2.981             40.593
 Rotational               0.889              2.981             28.689
 Vibrational            139.080             26.696             15.219
 Vibration     1          0.606              1.941              3.264
 Vibration     2          0.638              1.838              2.119
 Vibration     3          0.657              1.780              1.809
 Vibration     4          0.709              1.627              1.288
 Vibration     5          0.804              1.374              0.814
 Vibration     6          0.827              1.318              0.739
 Vibration     7          0.835              1.297              0.714
 Vibration     8          0.968              1.013              0.435
 Vibration     9          0.979              0.992              0.418

                           ! Non-Optimized Parameters !
 Normal termination of Gaussian 16 at Tue Sep  6 23:11:30 2022.
