 Gaussian 16, Revision C.01,
 Gaussian 16:  AS64L-G16RevC.01  3-Jul-2019

 -------------------------
 # B3LYP/def2tzvp opt freq
 -------------------------

 ------------------
 Diene_crest_conf_1
 ------------------
 Symbolic Z-matrix:
 Charge =  0 Multiplicity = 1

 SCF Done:  E(RB3LYP) =  -194.176624983     A.U. after   11 cycles
 SCF Done:  E(RB3LYP) =  -194.177209917     A.U. after   10 cycles
 SCF Done:  E(RB3LYP) =  -194.177233406     A.U. after    7 cycles
 SCF Done:  E(RB3LYP) =  -194.177235495     A.U. after    7 cycles
 Optimization completed.
    -- Stationary point found.
 Normal termination of Gaussian 16 at Tue Sep  6 22:57:02 2022.

 --------------------------------------------------------------------
 #N Geom=AllCheck Guess=TCheck SCRF=Check GenChk RB3LYP/def2TZVP Freq
 --------------------------------------------------------------------

 Structure from the checkpoint file:  "/tmp/Gau-2139473.chk"
 ------------------
 Diene_crest_conf_1
 ------------------
 Charge =  0 Multiplicity = 1

                         Standard orientation:
 ---------------------------------------------------------------------
 Center     Atomic      Atomic             Coordinates (Angstroms)
 Number     Number       Type             X           Y           Z
 ---------------------------------------------------------------------
      1          6           0       -1.176463   -0.280508    0.000089
      2          6           0       -0.732521    0.987763   -0.000036
      3          6           0        0.732685    0.987641   -0.000038
      4          6           0        1.176417   -0.280702    0.000033
      5          6           0       -0.000101   -1.213355   -0.000030
      6          1           0       -2.206027   -0.606419    0.000153
      7          1           0       -1.345167    1.878583   -0.000067
      8          1           0        1.345480    1.878360   -0.000093
      9          1           0        2.205926   -0.606788    0.000036
     10          1           0       -0.000169   -1.874337   -0.875662
     11          1           0       -0.000143   -1.874435    0.875522
 ---------------------------------------------------------------------

 SCF Done:  E(RB3LYP) =  -194.177235495     A.U. after    1 cycles

 The electronic state is 1-A.
 Alpha  occ. eigenvalues --  -10.17793 -10.16915 -10.16889 -10.16793 -10.16788
 Alpha  occ. eigenvalues --   -0.85915  -0.70730  -0.70565  -0.55382  -0.53205
 Alpha  occ. eigenvalues --   -0.51729  -0.43945  -0.40176  -0.37925  -0.36225
 Alpha  occ. eigenvalues --   -0.36188  -0.30583  -0.22521
 Alpha virt. eigenvalues --   -0.02599   0.04895   0.06372   0.07654   0.08846
 Alpha virt. eigenvalues --    0.10173   0.10292   0.10577   0.14117   0.17116
 Alpha virt. eigenvalues --    0.19122   0.19983   0.20839   0.22705   0.24347

 Mulliken charges:
               1
     1  C   -0.186109
     2  C   -0.104764
     3  C   -0.104763
     4  C   -0.186110
     5  C   -0.082524
     6  H    0.112882
     7  H    0.111125
     8  H    0.111125
     9  H    0.112882
    10  H    0.108136
    11  H    0.108119
 Sum of Mulliken charges =  -0.00000

 Dipole moment (field-independent basis, Debye):
    X=             -0.0000    Y=             -0.4580    Z=             -0.0001  Tot=              0.4580
 Quadrupole moment (field-independent basis, Debye-Ang):
   XX=            -29.0788   YY=            -27.4353   ZZ=            -33.1212
   XY=              0.0001   XZ=             -0.0001   YZ=             -0.0001

  Exact polarizability:      60.973       0.000      65.849      -0.001      -0.001      37.128
 Approx polarizability:      90.509       0.001     106.878      -0.001      -0.003      56.755

                      1                      2                      3
                      A                      A                      A
 Frequencies --    350.9973               525.9988               680.9116
 Red. masses --      1.5153                 2.3372                 1.1734
 Frc consts  --      0.1100                 0.3810                 0.3205
 IR Inten    --      7.0534                 0.0000                77.7271

                      4                      5                      6
                      A                      A                      A
 Frequencies --    713.5501               818.8888               820.2070
 Red. masses --      1.2817                 5.0458                 5.6163
 Frc consts  --      0.3845                 1.9936                 2.2261
 IR Inten    --      0.0000                 0.0067                 5.7733

                      7                      8                      9
                      A                      A                      A
 Frequencies --    919.2280               925.2839               953.0939
 Red. masses --      1.8006                 2.1468                 1.3350
 Frc consts  --      0.8964                 1.0829                 0.7145
 IR Inten    --     31.9717                11.1332                 0.0000

                     10                     11                     12
                      A                      A                      A
 Frequencies --    954.8991               970.9340              1013.9190
 Red. masses --      1.3550                 1.6250                 2.6160
 Frc consts  --      0.7280                 0.9026                 1.5845
 IR Inten    --      0.4377                15.1399                 0.2273

                     13                     14                     15
                      A                      A                      A
 Frequencies --   1115.2154              1125.7244              1133.5757
 Red. masses --      1.1241                 1.1367                 1.2530
 Frc consts  --      0.8237                 0.8487                 0.9487
 IR Inten    --      2.0548                 0.0000                 0.2092

                     16                     17                     18
                      A                      A                      A
 Frequencies --   1269.2115              1321.6998              1401.1418
 Red. masses --      1.7489                 1.5880                 1.5247
 Frc consts  --      1.6599                 1.6344                 1.7635
 IR Inten    --      2.5207                 0.7417                21.6046

                     19                     20                     21
                      A                      A                      A
 Frequencies --   1414.5437              1550.7214              1638.0476
 Red. masses --      1.3155                 5.6529                 5.1773
 Frc consts  --      1.5509                 8.0093                 8.1847
 IR Inten    --      4.4129                 1.0501                 0.0443

                     22                     23                     24
                      A                      A                      A
 Frequencies --   3013.6755              3033.5519              3193.4753
 Red. masses --      1.0604                 1.0980                 1.0867
 Frc consts  --      5.6743                 5.9532                 6.5299
 IR Inten    --      9.5116                 5.9684                 3.5819

                     25                     26                     27
                      A                      A                      A
 Frequencies --   3203.5828              3221.6895              3227.7586
 Red. masses --      1.0887                 1.0989                 1.1053
 Frc consts  --      6.5832                 6.7202                 6.7849
 IR Inten    --     11.5861                16.6845                 1.7812

 - Thermochemistry -
 -------------------
 Temperature   298.150 Kelvin.  Pressure   1.00000 Atm.
 Atom     1 has atomic number  6 and mass  12.00000

 Molecular mass:    66.04695 amu.
 Principal axes and moments of inertia in atomic units:
                           1         2         3
     Eigenvalues --   212.22609 218.19021 419.37943
           X            1.00000   0.00007   0.00002
           Y           -0.00007   1.00000   0.00002
           Z           -0.00002  -0.00002   1.00000
 This molecule is an asymmetric top.
 Rotational symmetry number  1.
 Rotational temperatures (Kelvin)      0.40812     0.39697     0.20653
 Rotational constants (GHZ):           8.50386     8.27141     4.30336
 Zero-point vibrational energy     242312.7 (Joules/Mol)
                                   57.91413 (Kcal/Mol)
 Warning -- explicit consideration of   2 degrees of freedom as
           vibrations may cause significant error
 Vibrational temperatures:    505.01   756.80   979.68  1026.64  1178.20
          (Kelvin)           1180.09  1322.56  1331.28  1371.29  1373.89
                             1396.96  1458.80  1604.55  1619.67  1630.96
                             1826.11  1901.63  2015.93  2035.21  2231.14
                             2356.79  4336.01  4364.60  4594.70  4609.24
                             4635.29  4644.02

 Zero-point correction=                           0.092292 (Hartree/Particle)
 Thermal correction to Energy=                    0.096439
 Thermal correction to Enthalpy=                  0.097384
 Thermal correction to Gibbs Free Energy=         0.065706
 Sum of electronic and zero-point Energies=           -194.084943
 Sum of electronic and thermal Energies=              -194.080796
 Sum of electronic and thermal Enthalpies=            -194.079852
 Sum of electronic and thermal Free Energies=         -194.111529

                     E (Thermal)             CV                S
                      KCal/Mol        Cal/Mol-Kelvin    Cal/Mol-Kelvin
 Total                   60.517             15.604             66.671
 Electronic               0.000              0.000              0.000
 Translational            0.889              2.981             38.482
 Rotational               0.889              2.981             24.477
 Vibrational             58.739              9.643              3.712
 Vibration     1          0.728              1.573              1.162
 Vibration     2          0.881              1.192              0.596

 Optimization completed.
    -- Stationary point found.
 Normal termination of Gaussian 16 at Tue Sep  6 22:57:46 2022.
