 Gaussian 16, Revision C.01,
 Gaussian 16:  AS64L-G16RevC.01  3-Jul-2019

 -------------------------
 # B3LYP/def2tzvp opt freq
 -------------------------

 ----------------
 Do2_crest_conf_1
 ----------------
 Symbolic Z-matrix:
 Charge =  0 Multiplicity = 1

 SCF Done:  E(RB3LYP) =  -156.033003537     A.U. after   11 cycles
 SCF Done:  E(RB3LYP) =  -156.033562710     A.U. after    9 cycles
 SCF Done:  E(RB3LYP) =  -156.033575978     A.U. after    7 cycles
 SCF Done:  E(RB3LYP) =  -156.033577572     A.U. after    7 cycles
 SCF Done:  E(RB3LYP) =  -156.033577791     A.U. after    6 cycles
 Optimization completed.
    -- Stationary point found.
 Normal termination of Gaussian 16 at Tue Sep  6 22:56:56 2022.

 --------------------------------------------------------------------
 #N Geom=AllCheck Guess=TCheck SCRF=Check GenChk RB3LYP/def2TZVP Freq
 --------------------------------------------------------------------

 Structure from the checkpoint file:  "/tmp/Gau-3073262.chk"
 ----------------
 Do2_crest_conf_1
 ----------------
 Charge =  0 Multiplicity = 1

                         Standard orientation:
 ---------------------------------------------------------------------
 Center     Atomic      Atomic             Coordinates (Angstroms)
 Number     Number       Type             X           Y           Z
 ---------------------------------------------------------------------
      1          6           0       -0.812248    0.667445   -0.000059
      2          6           0       -0.812266   -0.667426    0.000046
      3          6           0        0.698280   -0.784668    0.000052
      4          6           0        0.698300    0.784651   -0.000042
      5          1           0       -1.598603    1.411724   -0.000115
      6          1           0       -1.598639   -1.411685    0.000092
      7          1           0        1.141202   -1.243246   -0.887049
      8          1           0        1.141191   -1.243125    0.887223
      9          1           0        1.141219    1.243215    0.887069
     10          1           0        1.141239    1.243098   -0.887203
 ---------------------------------------------------------------------

 SCF Done:  E(RB3LYP) =  -156.033577791     A.U. after    1 cycles

 The electronic state is 1-A.
 Alpha  occ. eigenvalues --  -10.17339 -10.17323 -10.17058 -10.16972  -0.85814
 Alpha  occ. eigenvalues --   -0.65882  -0.64553  -0.51722  -0.50228  -0.46086
 Alpha  occ. eigenvalues --   -0.38531  -0.36417  -0.33158  -0.32159  -0.25522
 Alpha virt. eigenvalues --    0.00851   0.04944   0.07009   0.07876   0.08557
 Alpha virt. eigenvalues --    0.10382   0.12113   0.14680   0.15771   0.19219
 Alpha virt. eigenvalues --    0.19680   0.23116   0.23702   0.23914   0.25237

 Mulliken charges:
               1
     1  C   -0.143240
     2  C   -0.143239
     3  C   -0.139771
     4  C   -0.139771
     5  H    0.105117
     6  H    0.105117
     7  H    0.088948
     8  H    0.088946
     9  H    0.088948
    10  H    0.088946
 Sum of Mulliken charges =  -0.00000

 Dipole moment (field-independent basis, Debye):
    X=              0.1466    Y=             -0.0000    Z=              0.0000  Tot=              0.1466
 Quadrupole moment (field-independent basis, Debye-Ang):
   XX=            -24.9718   YY=            -24.4133   ZZ=            -26.2414
   XY=              0.0000   XZ=              0.0000   YZ=             -0.0001

  Exact polarizability:      47.353       0.000      52.416       0.000      -0.001      35.195
 Approx polarizability:      63.053       0.000      81.696       0.000      -0.002      51.546

                      1                      2                      3
                      A                      A                      A
 Frequencies --    326.1324               650.9172               866.0388
 Red. masses --      1.6160                 1.0679                 5.0960
 Frc consts  --      0.1013                 0.2666                 2.2519
 IR Inten    --      0.0000                48.1999                 0.3403

                      4                      5                      6
                      A                      A                      A
 Frequencies --    869.5265               885.2986               897.3955
 Red. masses --      1.1304                 2.7084                 1.9543
 Frc consts  --      0.5036                 1.2507                 0.9273
 IR Inten    --     18.1250                 1.1014                14.6221

                      7                      8                      9
                      A                      A                      A
 Frequencies --    939.0651               998.8256              1043.6638
 Red. masses --      1.2099                 1.6977                 1.8687
 Frc consts  --      0.6286                 0.9979                 1.1993
 IR Inten    --      0.0000                 0.0032                 0.0000

                     10                     11                     12
                      A                      A                      A
 Frequencies --   1100.3319              1133.3706              1171.6189
 Red. masses --      1.1900                 1.7919                 1.1682
 Frc consts  --      0.8488                 1.3562                 0.9448
 IR Inten    --      6.8032                 0.0931                 0.0000

                     13                     14                     15
                      A                      A                      A
 Frequencies --   1215.8914              1243.2511              1323.1790
 Red. masses --      1.4710                 1.3899                 1.8252
 Frc consts  --      1.2813                 1.2658                 1.8828
 IR Inten    --      2.3355                 3.4418                12.7783

                     16                     17                     18
                      A                      A                      A
 Frequencies --   1469.4229              1487.9523              1635.0022
 Red. masses --      1.0813                 1.1422                 5.1643
 Frc consts  --      1.3756                 1.4899                 8.1339
 IR Inten    --      0.7204                 0.3889                 1.3550

                     19                     20                     21
                      A                      A                      A
 Frequencies --   3034.7667              3039.8057              3068.1678
 Red. masses --      1.0552                 1.0579                 1.1084
 Frc consts  --      5.7258                 5.7594                 6.1474
 IR Inten    --     46.5454                49.6753                 0.0000

                     22                     23                     24
                      A                      A                      A
 Frequencies --   3082.5581              3169.2828              3199.6829
 Red. masses --      1.1063                 1.0840                 1.1124
 Frc consts  --      6.1938                 6.4151                 6.7103
 IR Inten    --     48.6287                15.7248                21.4399

 - Thermochemistry -
 -------------------
 Temperature   298.150 Kelvin.  Pressure   1.00000 Atm.
 Atom     1 has atomic number  6 and mass  12.00000

 Molecular mass:    54.04695 amu.
 Principal axes and moments of inertia in atomic units:
                           1         2         3
     Eigenvalues --   138.87085 146.68827 262.89947
           X            1.00000   0.00000  -0.00001
           Y           -0.00000   1.00000   0.00007
           Z            0.00001  -0.00007   1.00000
 This molecule is an asymmetric top.
 Rotational symmetry number  1.
 Rotational temperatures (Kelvin)      0.62370     0.59046     0.32946
 Rotational constants (GHZ):          12.99582    12.30324     6.86476
 Zero-point vibrational energy     226400.1 (Joules/Mol)
                                   54.11093 (Kcal/Mol)
 Warning -- explicit consideration of   1 degrees of freedom as
           vibrations may cause significant error
 Vibrational temperatures:    469.23   936.52  1246.04  1251.05  1273.75
          (Kelvin)           1291.15  1351.11  1437.09  1501.60  1583.13
                             1630.67  1685.70  1749.40  1788.76  1903.76
                             2114.17  2140.83  2352.40  4366.35  4373.60
                             4414.41  4435.11  4559.89  4603.63

 Zero-point correction=                           0.086231 (Hartree/Particle)
 Thermal correction to Energy=                    0.090054
 Thermal correction to Enthalpy=                  0.090998
 Thermal correction to Gibbs Free Energy=         0.060626
 Sum of electronic and zero-point Energies=           -155.947347
 Sum of electronic and thermal Energies=              -155.943524
 Sum of electronic and thermal Enthalpies=            -155.942580
 Sum of electronic and thermal Free Energies=         -155.972952

                     E (Thermal)             CV                S
                      KCal/Mol        Cal/Mol-Kelvin    Cal/Mol-Kelvin
 Total                   56.509             13.260             63.922
 Electronic               0.000              0.000              0.000
 Translational            0.889              2.981             37.884
 Rotational               0.889              2.981             23.197
 Vibrational             54.732              7.299              2.841
 Vibration     1          0.710              1.623              1.279

 Optimization completed.
    -- Stationary point found.
 Normal termination of Gaussian 16 at Tue Sep  6 22:57:22 2022.
