 Gaussian 16, Revision C.01,
 Gaussian 16:  AS64L-G16RevC.01  3-Jul-2019

 -------------------------
 # B3LYP/def2tzvp opt freq
 -------------------------

 ---------------
 P2_crest_conf_1
 ---------------
 Symbolic Z-matrix:
 Charge =  0 Multiplicity = 1

 SCF Done:  E(RB3LYP) =  -350.232952852     A.U. after   14 cycles
 SCF Done:  E(RB3LYP) =  -350.235132652     A.U. after   10 cycles
 SCF Done:  E(RB3LYP) =  -350.235302764     A.U. after    9 cycles
 SCF Done:  E(RB3LYP) =  -350.235318313     A.U. after    7 cycles
 SCF Done:  E(RB3LYP) =  -350.235319599     A.U. after    6 cycles
 Optimization completed.
    -- Stationary point found.
 Normal termination of Gaussian 16 at Tue Sep  6 23:01:10 2022.

 --------------------------------------------------------------------
 #N Geom=AllCheck Guess=TCheck SCRF=Check GenChk RB3LYP/def2TZVP Freq
 --------------------------------------------------------------------

 Structure from the checkpoint file:  "/tmp/Gau-3076372.chk"
 ---------------
 P2_crest_conf_1
 ---------------
 Charge =  0 Multiplicity = 1

                         Standard orientation:
 ---------------------------------------------------------------------
 Center     Atomic      Atomic             Coordinates (Angstroms)
 Number     Number       Type             X           Y           Z
 ---------------------------------------------------------------------
      1          6           0       -0.621649    0.780708   -0.717030
      2          6           0       -0.621654   -0.780774   -0.716957
      3          6           0        0.825960   -1.130897   -0.229062
      4          6           0        0.980327   -0.667167    1.207703
      5          6           0        0.980331    0.667289    1.207633
      6          6           0        0.825969    1.130869   -0.229181
      7          6           0        1.600775   -0.000056   -0.953270
      8          6           0       -1.821423   -0.777254    0.269047
      9          6           0       -1.821405    0.777287    0.268993
     10          1           0       -0.820605    1.261313   -1.675394
     11          1           0       -0.820600   -1.261469   -1.675278
     12          1           0        1.135540   -2.154454   -0.433794
     13          1           0        0.996253   -1.317134    2.071741
     14          1           0        0.996258    1.317348    2.071603
     15          1           0        1.135557    2.154402   -0.434019
     16          1           0        2.667170   -0.000049   -0.726100
     17          1           0        1.453423   -0.000114   -2.036266
     18          1           0       -1.625095   -1.237248    1.237821
     19          1           0       -2.728133   -1.221085   -0.142617
     20          1           0       -2.728111    1.221114   -0.142682
     21          1           0       -1.625043    1.237340    1.237731
 ---------------------------------------------------------------------

 SCF Done:  E(RB3LYP) =  -350.235319599     A.U. after    1 cycles

 The electronic state is 1-A.
 Alpha  occ. eigenvalues --  -10.17568 -10.17566 -10.16774 -10.16756 -10.16622
 Alpha  occ. eigenvalues --  -10.16389 -10.16300 -10.15950 -10.15932  -0.88954
 Alpha  occ. eigenvalues --   -0.80508  -0.71986  -0.71788  -0.64458  -0.62657
 Alpha  occ. eigenvalues --   -0.56061  -0.54997  -0.52020  -0.48680  -0.47875
 Alpha  occ. eigenvalues --   -0.47179  -0.41922  -0.39215  -0.38931  -0.37446
 Alpha  occ. eigenvalues --   -0.35242  -0.34484  -0.33910  -0.32577  -0.30377
 Alpha  occ. eigenvalues --   -0.28887  -0.28658  -0.24297
 Alpha virt. eigenvalues --    0.00327   0.03408   0.05425   0.06276   0.06277
 Alpha virt. eigenvalues --    0.08819   0.09403   0.09449   0.09589   0.10814
 Alpha virt. eigenvalues --    0.11359   0.13160   0.13735   0.13878   0.15859

 Mulliken charges:
               1
     1  C   -0.070002
     2  C   -0.069997
     3  C    0.045606
     4  C   -0.211972
     5  C   -0.211983
     6  C    0.045610
     7  C   -0.195339
     8  C   -0.151626
     9  C   -0.151623
    10  H    0.066294
    11  H    0.066295
    12  H    0.079111
    13  H    0.106186
    14  H    0.106188
    15  H    0.079111
    16  H    0.088419
    17  H    0.082785
    18  H    0.065483
    19  H    0.082986
    20  H    0.082985
    21  H    0.065485
 Sum of Mulliken charges =  -0.00000

 Dipole moment (field-independent basis, Debye):
    X=             -0.1181    Y=             -0.0000    Z=             -0.2950  Tot=              0.3177
 Quadrupole moment (field-independent basis, Debye-Ang):
   XX=            -57.5782   YY=            -54.7611   ZZ=            -54.6029
   XY=             -0.0000   XZ=              0.2659   YZ=              0.0000

  Exact polarizability:      96.591       0.000      93.572      -0.276      -0.000      89.204
 Approx polarizability:     132.377       0.000     153.453       0.935      -0.001     134.694

                      1                      2                      3
                      A                      A                      A
 Frequencies --    155.3904               260.4163               336.0318
 Red. masses --      2.1641                 3.1255                 2.2583
 Frc consts  --      0.0308                 0.1249                 0.1502
 IR Inten    --      0.0442                 0.2741                 0.0221

                      4                      5                      6
                      A                      A                      A
 Frequencies --    463.9536               475.6737               498.1258
 Red. masses --      1.8909                 2.4994                 3.2627
 Frc consts  --      0.2398                 0.3332                 0.4770
 IR Inten    --      5.2429                 0.8292                 0.0005

                      7                      8                      9
                      A                      A                      A
 Frequencies --    648.7813               707.5342               707.8221
 Red. masses --      3.4256                 1.8162                 2.7282
 Frc consts  --      0.8495                 0.5357                 0.8053
 IR Inten    --      1.3288                 4.5500                 2.0308

                     10                     11                     12
                      A                      A                      A
 Frequencies --    754.8268               756.7411               787.9297
 Red. masses --      2.3275                 1.3932                 3.8187
 Frc consts  --      0.7813                 0.4701                 1.3968
 IR Inten    --     15.2717                22.1417                 1.0926

                     13                     14                     15
                      A                      A                      A
 Frequencies --    828.4193               871.2521               889.3786
 Red. masses --      2.4673                 3.6464                 1.9300
 Frc consts  --      0.9976                 1.6308                 0.8994
 IR Inten    --      9.7686                 0.4455                 2.1030

                     16                     17                     18
                      A                      A                      A
 Frequencies --    904.6289               912.4216               953.3125
 Red. masses --      2.3431                 2.0596                 2.9238
 Frc consts  --      1.1297                 1.0102                 1.5655
 IR Inten    --      4.0004                 0.6241                 0.1038

                     19                     20                     21
                      A                      A                      A
 Frequencies --    954.1884               958.8800               976.5393
 Red. masses --      1.5586                 2.5469                 1.4579
 Frc consts  --      0.8361                 1.3797                 0.8192
 IR Inten    --      1.7735                 0.0863                 0.6801

                     22                     23                     24
                      A                      A                      A
 Frequencies --   1003.3016              1018.9595              1053.3035
 Red. masses --      2.1389                 1.4619                 2.3018
 Frc consts  --      1.2685                 0.8943                 1.5046
 IR Inten    --      0.3798                 0.6797                 0.0947

                     25                     26                     27
                      A                      A                      A
 Frequencies --   1066.3206              1106.6710              1125.1253
 Red. masses --      2.0531                 1.2070                 1.7633
 Frc consts  --      1.3754                 0.8709                 1.3151
 IR Inten    --      0.7393                 1.7944                 0.2440

                     28                     29                     30
                      A                      A                      A
 Frequencies --   1137.5671              1142.9878              1173.0467
 Red. masses --      1.0903                 1.2842                 1.7238
 Frc consts  --      0.8313                 0.9885                 1.3975
 IR Inten    --      0.0096                 1.9245                 0.4772

                     31                     32                     33
                      A                      A                      A
 Frequencies --   1222.4450              1240.9175              1258.0371
 Red. masses --      1.2692                 1.4292                 1.3499
 Frc consts  --      1.1175                 1.2967                 1.2587
 IR Inten    --      0.6570                 1.0778                 1.0496

                     34                     35                     36
                      A                      A                      A
 Frequencies --   1272.6416              1274.6199              1283.2106
 Red. masses --      1.5658                 1.3937                 1.3983
 Frc consts  --      1.4942                 1.3341                 1.3566
 IR Inten    --      2.5059                 0.0050                 0.0901

                     37                     38                     39
                      A                      A                      A
 Frequencies --   1285.0002              1295.6365              1311.1842
 Red. masses --      1.4567                 1.5035                 1.3672
 Frc consts  --      1.4172                 1.4871                 1.3848
 IR Inten    --      3.9753                 0.8792                 1.2951

                     40                     41                     42
                      A                      A                      A
 Frequencies --   1340.0732              1373.5503              1471.6687
 Red. masses --      1.4478                 1.7205                 1.0829
 Frc consts  --      1.5318                 1.9125                 1.3818
 IR Inten    --      2.2423                 8.2071                 4.0480

                     43                     44                     45
                      A                      A                      A
 Frequencies --   1490.9837              1499.9727              1636.3824
 Red. masses --      1.1179                 1.1101                 5.6367
 Frc consts  --      1.4642                 1.4716                 8.8930
 IR Inten    --      4.7516                 5.5462                 1.5158

                     46                     47                     48
                      A                      A                      A
 Frequencies --   3040.4429              3051.5948              3056.4119
 Red. masses --      1.0611                 1.0619                 1.0606
 Frc consts  --      5.7794                 5.8260                 5.8375
 IR Inten    --     34.2090                21.1497                64.7946

                     49                     50                     51
                      A                      A                      A
 Frequencies --   3059.5755              3071.7311              3089.0723
 Red. masses --      1.0833                 1.0869                 1.1069
 Frc consts  --      5.9750                 6.0423                 6.2231
 IR Inten    --     31.3585                26.1484                 0.0123

                     52                     53                     54
                      A                      A                      A
 Frequencies --   3096.8948              3097.1210              3102.1921
 Red. masses --      1.1008                 1.0870                 1.0947
 Frc consts  --      6.2200                 6.1433                 6.2069
 IR Inten    --     15.1577                82.9907                35.5923

                     55                     56                     57
                      A                      A                      A
 Frequencies --   3108.0212              3186.7029              3210.5240
 Red. masses --      1.1052                 1.0860                 1.1048
 Frc consts  --      6.2901                 6.4979                 6.7097
 IR Inten    --     66.2014                 7.7352                13.9871

 - Thermochemistry -
 -------------------
 Temperature   298.150 Kelvin.  Pressure   1.00000 Atm.
 Atom     1 has atomic number  6 and mass  12.00000

 Molecular mass:   120.09390 amu.
 Principal axes and moments of inertia in atomic units:
                           1         2         3
     Eigenvalues --   629.86549 994.180461026.09481
           X            0.99980  -0.00000  -0.02002
           Y            0.00000   1.00000   0.00001
           Z            0.02002  -0.00001   0.99980
 This molecule is an asymmetric top.
 Rotational symmetry number  1.
 Warning -- assumption of classical behavior for rotation
           may cause significant error
 Rotational temperatures (Kelvin)      0.13751     0.08712     0.08441
 Rotational constants (GHZ):           2.86528     1.81531     1.75884
 Zero-point vibrational energy     490804.7 (Joules/Mol)
                                  117.30514 (Kcal/Mol)
 Warning -- explicit consideration of   6 degrees of freedom as
           vibrations may cause significant error
 Vibrational temperatures:    223.57   374.68   483.47   667.53   684.39
          (Kelvin)            716.69   933.45  1017.98  1018.40  1086.03
                             1088.78  1133.66  1191.91  1253.54  1279.62
                             1301.56  1312.77  1371.60  1372.86  1379.61
                             1405.02  1443.53  1466.06  1515.47  1534.20
                             1592.25  1618.80  1636.71  1644.50  1687.75
                             1758.83  1785.40  1810.03  1831.05  1833.89
                             1846.25  1848.83  1864.13  1886.50  1928.07
                             1976.23  2117.40  2145.19  2158.13  2354.39
                             4374.52  4390.56  4397.50  4402.05  4419.54
                             4444.49  4455.74  4456.07  4463.36  4471.75
                             4584.95  4619.23

 Zero-point correction=                           0.186938 (Hartree/Particle)
 Thermal correction to Energy=                    0.193444
 Thermal correction to Enthalpy=                  0.194388
 Thermal correction to Gibbs Free Energy=         0.156527
 Sum of electronic and zero-point Energies=           -350.048382
 Sum of electronic and thermal Energies=              -350.041875
 Sum of electronic and thermal Enthalpies=            -350.040931
 Sum of electronic and thermal Free Energies=         -350.078793

                     E (Thermal)             CV                S
                      KCal/Mol        Cal/Mol-Kelvin    Cal/Mol-Kelvin
 Total                  121.388             28.715             79.686
 Electronic               0.000              0.000              0.000
 Translational            0.889              2.981             40.264
 Rotational               0.889              2.981             27.954
 Vibrational            119.611             22.754             11.468
 Vibration     1          0.620              1.897              2.605
 Vibration     2          0.668              1.745              1.659
 Vibration     3          0.717              1.604              1.231
 Vibration     4          0.821              1.330              0.755
 Vibration     5          0.832              1.304              0.722
 Vibration     6          0.854              1.254              0.663

 Optimization completed.
    -- Stationary point found.
 Normal termination of Gaussian 16 at Tue Sep  6 23:06:43 2022.
