 Gaussian 16, Revision C.01,
 Gaussian 16:  AS64L-G16RevC.01  3-Jul-2019

 ---------------------------------------------
 # opt=(calcfc,ts,noeigen) freq b3lyp def2tzvp
 ---------------------------------------------

 ----------------
 TS2_crest_conf_1
 ----------------
 Symbolic Z-matrix:
 Charge =  0 Multiplicity = 1

 SCF Done:  E(RB3LYP) =  -350.128354960     A.U. after   14 cycles
 SCF Done:  E(RB3LYP) =  -350.135964711     A.U. after   13 cycles
 SCF Done:  E(RB3LYP) =  -350.143319849     A.U. after   13 cycles
 SCF Done:  E(RB3LYP) =  -350.149831436     A.U. after   13 cycles
 SCF Done:  E(RB3LYP) =  -350.155297473     A.U. after   13 cycles
 SCF Done:  E(RB3LYP) =  -350.161865196     A.U. after   13 cycles
 SCF Done:  E(RB3LYP) =  -350.168535411     A.U. after   13 cycles
 SCF Done:  E(RB3LYP) =  -350.169415452     A.U. after   12 cycles
 SCF Done:  E(RB3LYP) =  -350.169228974     A.U. after   12 cycles
 SCF Done:  E(RB3LYP) =  -350.168265192     A.U. after   13 cycles
 SCF Done:  E(RB3LYP) =  -350.169362158     A.U. after   12 cycles
 SCF Done:  E(RB3LYP) =  -350.167300603     A.U. after   12 cycles
 SCF Done:  E(RB3LYP) =  -350.169203364     A.U. after   12 cycles
 SCF Done:  E(RB3LYP) =  -350.169416904     A.U. after   11 cycles
 SCF Done:  E(RB3LYP) =  -350.169462425     A.U. after   10 cycles
 SCF Done:  E(RB3LYP) =  -350.169463374     A.U. after    8 cycles
 SCF Done:  E(RB3LYP) =  -350.169463917     A.U. after    8 cycles
 SCF Done:  E(RB3LYP) =  -350.169464244     A.U. after    7 cycles
 SCF Done:  E(RB3LYP) =  -350.169464373     A.U. after    7 cycles
 Optimization completed.
    -- Stationary point found.
 Normal termination of Gaussian 16 at Tue Sep  6 23:26:29 2022.

 --------------------------------------------------------------------
 #N Geom=AllCheck Guess=TCheck SCRF=Check GenChk RB3LYP/def2TZVP Freq
 --------------------------------------------------------------------

 Structure from the checkpoint file:  "/tmp/Gau-2855045.chk"
 ----------------
 TS2_crest_conf_1
 ----------------
 Charge =  0 Multiplicity = 1

                         Standard orientation:
 ---------------------------------------------------------------------
 Center     Atomic      Atomic             Coordinates (Angstroms)
 Number     Number       Type             X           Y           Z
 ---------------------------------------------------------------------
      1          6           0       -0.982501   -1.153283    0.401576
      2          6           0       -1.913718   -0.699482   -0.533984
      3          6           0       -1.913801    0.699304   -0.534061
      4          6           0       -0.982620    1.153338    0.401420
      5          6           0       -0.703202    0.000091    1.323717
      6          6           0        0.873681   -0.700681   -0.769189
      7          6           0        0.873774    0.700788   -0.769192
      8          6           0        2.098680    0.780169    0.137007
      9          6           0        2.098603   -0.780225    0.136990
     10          1           0       -0.856148   -2.187476    0.691475
     11          1           0       -2.441739   -1.322950   -1.242216
     12          1           0       -2.441967    1.322628   -1.242313
     13          1           0       -0.856581    2.187574    0.691300
     14          1           0       -1.469088    0.000143    2.113951
     15          1           0        0.265133    0.000154    1.817089
     16          1           0        0.600988   -1.391693   -1.552402
     17          1           0        0.601056    1.391687   -1.552496
     18          1           0        1.973367    1.273436    1.104192
     19          1           0        2.979236    1.206022   -0.349193
     20          1           0        1.973231   -1.273531    1.104148
     21          1           0        2.979131   -1.206105   -0.349233
 ---------------------------------------------------------------------

 SCF Done:  E(RB3LYP) =  -350.169464373     A.U. after    1 cycles

 The electronic state is 1-A.
 Alpha  occ. eigenvalues --  -10.17827 -10.17826 -10.17025 -10.17003 -10.16950
 Alpha  occ. eigenvalues --  -10.16860 -10.16843 -10.16145 -10.16091  -0.86915
 Alpha  occ. eigenvalues --   -0.83843  -0.70542  -0.70014  -0.65183  -0.64036
 Alpha  occ. eigenvalues --   -0.55466  -0.52623  -0.51565  -0.51176  -0.49077
 Alpha  occ. eigenvalues --   -0.47562  -0.41674  -0.38559  -0.38108  -0.37198
 Alpha  occ. eigenvalues --   -0.36674  -0.36271  -0.35313  -0.32852  -0.31427
 Alpha  occ. eigenvalues --   -0.30922  -0.22609  -0.22019
 Alpha virt. eigenvalues --   -0.01242   0.00211   0.04179   0.05915   0.06286
 Alpha virt. eigenvalues --    0.06545   0.08180   0.08426   0.09417   0.09872
 Alpha virt. eigenvalues --    0.10804   0.11049   0.12812   0.12943   0.15490

 Mulliken charges:
               1
     1  C   -0.100437
     2  C   -0.143802
     3  C   -0.143814
     4  C   -0.100424
     5  C   -0.151739
     6  C   -0.111720
     7  C   -0.111793
     8  C   -0.162210
     9  C   -0.162199
    10  H    0.109646
    11  H    0.102615
    12  H    0.102613
    13  H    0.109633
    14  H    0.104710
    15  H    0.106669
    16  H    0.098879
    17  H    0.098877
    18  H    0.083803
    19  H    0.093450
    20  H    0.083798
    21  H    0.093446
 Sum of Mulliken charges =  -0.00000

 Dipole moment (field-independent basis, Debye):
    X=              0.3852    Y=             -0.0002    Z=              0.0250  Tot=              0.3860
 Quadrupole moment (field-independent basis, Debye-Ang):
   XX=            -57.7369   YY=            -54.0155   ZZ=            -54.6959
   XY=             -0.0002   XZ=              1.3284   YZ=              0.0003

  Exact polarizability:     130.210       0.001     100.782       0.889      -0.000      89.673
 Approx polarizability:     206.582       0.004     178.017      -2.520      -0.002     145.219

 ******    1 imaginary frequencies (negative Signs) ******

                      1                      2                      3
                      A                      A                      A
 Frequencies --   -506.6245               130.8198               159.6108
 Red. masses --      8.2605                 3.4399                 3.0145
 Frc consts  --      1.2492                 0.0347                 0.0452
 IR Inten    --      3.1865                 0.7376                 0.6580

                      4                      5                      6
                      A                      A                      A
 Frequencies --    218.8297               281.0505               290.9897
 Red. masses --      3.0443                 2.3150                 3.7372
 Frc consts  --      0.0859                 0.1077                 0.1864
 IR Inten    --      0.1451                 0.4153                 0.7028

                      7                      8                      9
                      A                      A                      A
 Frequencies --    468.6977               473.7404               572.9980
 Red. masses --      2.9839                 1.9564                 2.7693
 Frc consts  --      0.3862                 0.2587                 0.5357
 IR Inten    --      0.0003                 0.9681                 2.2233

                     10                     11                     12
                      A                      A                      A
 Frequencies --    763.7828               767.4848               777.9774
 Red. masses --      1.5536                 1.1811                 1.3208
 Frc consts  --      0.5340                 0.4099                 0.4710
 IR Inten    --     28.9564                20.5148                23.2273

                     13                     14                     15
                      A                      A                      A
 Frequencies --    784.7707               824.7295               834.0653
 Red. masses --      1.5751                 4.6061                 1.5948
 Frc consts  --      0.5715                 1.8459                 0.6537
 IR Inten    --      0.0197                 0.0675                16.0300

                     16                     17                     18
                      A                      A                      A
 Frequencies --    849.9248               904.1591               909.3148
 Red. masses --      2.4599                 2.1182                 2.1098
 Frc consts  --      1.0470                 1.0202                 1.0278
 IR Inten    --      0.0992                 5.3260                 3.4873

                     19                     20                     21
                      A                      A                      A
 Frequencies --    911.3580               949.4085               955.9844
 Red. masses --      1.8272                 1.3281                 1.3099
 Frc consts  --      0.8941                 0.7053                 0.7053
 IR Inten    --      2.7264                 9.3313                 0.1986

                     22                     23                     24
                      A                      A                      A
 Frequencies --    969.4892               972.3173               979.0307
 Red. masses --      1.1415                 1.7976                 1.5578
 Frc consts  --      0.6322                 1.0013                 0.8797
 IR Inten    --      0.4733                 1.5736                 4.1542

                     25                     26                     27
                      A                      A                      A
 Frequencies --    992.4314              1049.3607              1081.0523
 Red. masses --      1.5827                 1.8597                 1.4482
 Frc consts  --      0.9184                 1.2065                 0.9972
 IR Inten    --      0.9783                 3.5434                 2.1929

                     28                     29                     30
                      A                      A                      A
 Frequencies --   1086.6947              1089.1020              1111.5793
 Red. masses --      1.1906                 1.7001                 1.6706
 Frc consts  --      0.8284                 1.1881                 1.2162
 IR Inten    --      0.2005                 1.0461                 2.5123

                     31                     32                     33
                      A                      A                      A
 Frequencies --   1126.3616              1131.0886              1190.6640
 Red. masses --      1.1548                 1.6855                 1.1533
 Frc consts  --      0.8632                 1.2705                 0.9633
 IR Inten    --      6.6704                12.3820                 1.2778

                     34                     35                     36
                      A                      A                      A
 Frequencies --   1214.9739              1249.1664              1283.3037
 Red. masses --      1.5268                 1.3789                 1.7627
 Frc consts  --      1.3279                 1.2677                 1.7104
 IR Inten    --      2.9063                 1.3999                 3.3020

                     37                     38                     39
                      A                      A                      A
 Frequencies --   1304.2880              1313.3819              1372.3020
 Red. masses --      1.6737                 1.5996                 2.9413
 Frc consts  --      1.6775                 1.6257                 3.2635
 IR Inten    --     10.4403                 0.4180                 3.6520

                     40                     41                     42
                      A                      A                      A
 Frequencies --   1425.7650              1459.8285              1475.2799
 Red. masses --      3.0617                 1.4205                 1.0803
 Frc consts  --      3.6670                 1.7836                 1.3853
 IR Inten    --      5.0420                 7.3265                 2.0290

                     43                     44                     45
                      A                      A                      A
 Frequencies --   1479.6084              1499.3146              1503.4819
 Red. masses --      1.8281                 1.1445                 3.3507
 Frc consts  --      2.3580                 1.5158                 4.4626
 IR Inten    --      1.4655                 5.0025                 4.2977

                     46                     47                     48
                      A                      A                      A
 Frequencies --   2983.9768              3027.0023              3032.3751
 Red. masses --      1.0730                 1.0576                 1.0601
 Frc consts  --      5.6293                 5.7095                 5.7435
 IR Inten    --     24.8122                50.6787                79.8461

                     49                     50                     51
                      A                      A                      A
 Frequencies --   3058.6115              3075.7475              3122.3601
 Red. masses --      1.1051                 1.1046                 1.0865
 Frc consts  --      6.0914                 6.1570                 6.2411
 IR Inten    --      0.2214                46.1737                12.0350

                     52                     53                     54
                      A                      A                      A
 Frequencies --   3185.4039              3190.1824              3192.9553
 Red. masses --      1.0858                 1.0866                 1.0906
 Frc consts  --      6.4911                 6.5153                 6.5506
 IR Inten    --      0.3098                12.3691                 9.8568

                     55                     56                     57
                      A                      A                      A
 Frequencies --   3202.4403              3210.7303              3214.7437
 Red. masses --      1.0953                 1.1010                 1.1034
 Frc consts  --      6.6182                 6.6875                 6.7186
 IR Inten    --     24.7673                11.9211                 6.3590

 - Thermochemistry -
 -------------------
 Temperature   298.150 Kelvin.  Pressure   1.00000 Atm.
 Atom     1 has atomic number  6 and mass  12.00000

 Molecular mass:   120.09390 amu.
 Principal axes and moments of inertia in atomic units:
                           1         2         3
     Eigenvalues --   568.315231246.274551344.55828
           X            0.99992  -0.00000   0.01234
           Y            0.00000   1.00000   0.00002
           Z           -0.01234  -0.00002   0.99992
 This molecule is an asymmetric top.
 Rotational symmetry number  1.
 Warning -- assumption of classical behavior for rotation
           may cause significant error
 Rotational temperatures (Kelvin)      0.15240     0.06950     0.06442
 Rotational constants (GHZ):           3.17560     1.44811     1.34226
    1 imaginary frequencies ignored.
 Zero-point vibrational energy     476628.7 (Joules/Mol)
                                  113.91699 (Kcal/Mol)
 Warning -- explicit consideration of   8 degrees of freedom as
           vibrations may cause significant error
 Vibrational temperatures:    188.22   229.64   314.85   404.37   418.67
          (Kelvin)            674.35   681.61   824.42  1098.91  1104.24
                             1119.34  1129.11  1186.60  1200.03  1222.85
                             1300.88  1308.30  1311.24  1365.99  1375.45
                             1394.88  1398.95  1408.61  1427.89  1509.80
                             1555.39  1563.51  1566.97  1599.31  1620.58
                             1627.38  1713.10  1748.08  1797.27  1846.39
                             1876.58  1889.66  1974.44  2051.36  2100.37
                             2122.60  2128.83  2157.18  2163.18  4293.28
                             4355.18  4362.91  4400.66  4425.31  4492.38
                             4583.09  4589.96  4593.95  4607.60  4619.52
                             4625.30

 Zero-point correction=                           0.181538 (Hartree/Particle)
 Thermal correction to Energy=                    0.189008
 Thermal correction to Enthalpy=                  0.189952
 Thermal correction to Gibbs Free Energy=         0.149912
 Sum of electronic and zero-point Energies=           -349.987926
 Sum of electronic and thermal Energies=              -349.980457
 Sum of electronic and thermal Enthalpies=            -349.979512
 Sum of electronic and thermal Free Energies=         -350.019552

                     E (Thermal)             CV                S
                      KCal/Mol        Cal/Mol-Kelvin    Cal/Mol-Kelvin
 Total                  118.604             30.827             84.271
 Electronic               0.000              0.000              0.000
 Translational            0.889              2.981             40.264
 Rotational               0.889              2.981             28.345
 Vibrational            116.827             24.865             15.662
 Vibration     1          0.612              1.923              2.934
 Vibration     2          0.621              1.892              2.554
 Vibration     3          0.647              1.812              1.969
 Vibration     4          0.681              1.709              1.527
 Vibration     5          0.687              1.691              1.468
 Vibration     6          0.826              1.319              0.741
 Vibration     7          0.831              1.308              0.727
 Vibration     8          0.929              1.090              0.499

 Optimization completed.
    -- Stationary point found.
 Normal termination of Gaussian 16 at Tue Sep  6 23:31:40 2022.
