 Gaussian 16, Revision C.01,
 Gaussian 16:  AS64L-G16RevC.01  3-Jul-2019

 ----------------------------
 # B3LYP/6-31+G(d,p) opt freq
 ----------------------------

 -----------------------
 Strychnine_rdkit_conf_2
 -----------------------
 Symbolic Z-matrix:
 Charge =  0 Multiplicity = 1

 SCF Done:  E(RB3LYP) =  -1073.46120118     A.U. after   16 cycles
 SCF Done:  E(RB3LYP) =  -1073.46750969     A.U. after   13 cycles
 SCF Done:  E(RB3LYP) =  -1073.46807693     A.U. after   13 cycles
 SCF Done:  E(RB3LYP) =  -1073.46816506     A.U. after   13 cycles
 SCF Done:  E(RB3LYP) =  -1073.46823921     A.U. after   11 cycles
 SCF Done:  E(RB3LYP) =  -1073.46825284     A.U. after   11 cycles
 SCF Done:  E(RB3LYP) =  -1073.46825455     A.U. after   11 cycles
 SCF Done:  E(RB3LYP) =  -1073.46825478     A.U. after    9 cycles
 SCF Done:  E(RB3LYP) =  -1073.46825485     A.U. after    9 cycles
 Optimization completed.
    -- Stationary point found.
 Normal termination of Gaussian 16 at Tue Sep  6 14:07:30 2022.

 ----------------------------------------------------------------------
 #N Geom=AllCheck Guess=TCheck SCRF=Check GenChk RB3LYP/6-31+G(d,p) Fre
 q
 ----------------------------------------------------------------------

 Structure from the checkpoint file:  "/tmp/Gau-2812912.chk"
 -----------------------
 Strychnine_rdkit_conf_2
 -----------------------
 Charge =  0 Multiplicity = 1

                         Standard orientation:
 ---------------------------------------------------------------------
 Center     Atomic      Atomic             Coordinates (Angstroms)
 Number     Number       Type             X           Y           Z
 ---------------------------------------------------------------------
      1          6           0        0.451819   -1.884280    1.699687
      2          6           0       -0.997620   -2.384344    1.729694
      3          7           0       -1.345657   -2.672587    0.323372
      4          6           0       -2.707323   -2.234528   -0.055199
      5          6           0       -2.730325   -0.745276   -0.343470
      6          6           0       -3.434091    0.106589    0.415842
      7          6           0       -3.429788    1.614233    0.402699
      8          8           0       -2.730362    2.248307   -0.659371
      9          6           0       -1.304315    2.172184   -0.721734
     10          6           0       -0.585597    2.899368    0.451127
     11          6           0        0.897169    2.530893    0.528075
     12          8           0        1.799123    3.362058    0.518681
     13          7           0        1.115011    1.167137    0.587062
     14          6           0       -0.042779    0.265339    0.384519
     15          6           0       -0.741981    0.737255   -0.903444
     16          6           0       -1.725710   -0.322579   -1.421429
     17          6           0       -0.860775   -1.534737   -1.826503
     18          6           0       -0.260626   -2.151908   -0.561357
     19          6           0        0.566642   -1.168576    0.327253
     20          6           0        2.009308   -0.869567   -0.033220
     21          6           0        3.023984   -1.726452   -0.448507
     22          6           0        4.320718   -1.222365   -0.623432
     23          6           0        4.591568    0.125176   -0.367316
     24          6           0        3.585977    1.002625    0.058253
     25          6           0        2.298377    0.485877    0.211793
     26          1           0        0.696504   -1.226518    2.539586
     27          1           0        1.155285   -2.723779    1.720408
     28          1           0       -1.113045   -3.279461    2.352596
     29          1           0       -1.658810   -1.608625    2.147005
     30          1           0       -3.385311   -2.490376    0.763756
     31          1           0       -3.037476   -2.814339   -0.925478
     32          1           0       -4.089569   -0.308128    1.184334
     33          1           0       -4.459540    1.980352    0.309067
     34          1           0       -3.071432    1.977012    1.381997
     35          1           0       -1.092002    2.732364   -1.636643
     36          1           0       -1.057742    2.625288    1.402416
     37          1           0       -0.658154    3.982309    0.345436
     38          1           0       -0.722243    0.349384    1.236040
     39          1           0        0.054257    0.822676   -1.655703
     40          1           0       -2.258427    0.070510   -2.295605
     41          1           0       -0.061067   -1.219099   -2.505026
     42          1           0       -1.443668   -2.290352   -2.362841
     43          1           0        0.398659   -2.986321   -0.837523
     44          1           0        2.818874   -2.777398   -0.634255
     45          1           0        5.117084   -1.883031   -0.952545
     46          1           0        5.600324    0.505393   -0.499999
     47          1           0        3.784142    2.047803    0.255463
 ---------------------------------------------------------------------

 SCF Done:  E(RB3LYP) =  -1073.46825485     A.U. after    1 cycles

 The electronic state is 1-A.
 Alpha  occ. eigenvalues --  -19.17059 -19.13241 -14.38463 -14.33700 -10.30105
 Alpha  occ. eigenvalues --  -10.25983 -10.25332 -10.24233 -10.23812 -10.23054
 Alpha  occ. eigenvalues --  -10.22385 -10.22202 -10.21840 -10.21116 -10.20899
 Alpha  occ. eigenvalues --  -10.20677 -10.20659 -10.20513 -10.20212 -10.20020
 Alpha  occ. eigenvalues --  -10.19944 -10.19901 -10.19839 -10.19645 -10.19409
 Alpha  occ. eigenvalues --   -1.05105  -1.04656  -0.97672  -0.94445  -0.86411
 Alpha  occ. eigenvalues --   -0.84512  -0.82998  -0.81292  -0.78336  -0.75773
 Alpha  occ. eigenvalues --   -0.75720  -0.74286  -0.72710  -0.71255  -0.68168
 Alpha  occ. eigenvalues --   -0.65357  -0.64401  -0.63459  -0.61452  -0.59176
 Alpha  occ. eigenvalues --   -0.58069  -0.56411  -0.55725  -0.52992  -0.52454
 Alpha  occ. eigenvalues --   -0.51858  -0.50644  -0.49648  -0.48068  -0.47877
 Alpha  occ. eigenvalues --   -0.47693  -0.47146  -0.46010  -0.45781  -0.44992
 Alpha  occ. eigenvalues --   -0.44646  -0.43769  -0.43636  -0.41997  -0.41593
 Alpha  occ. eigenvalues --   -0.40795  -0.40481  -0.40171  -0.39860  -0.38839
 Alpha  occ. eigenvalues --   -0.38676  -0.38162  -0.37389  -0.36779  -0.36432
 Alpha  occ. eigenvalues --   -0.35941  -0.35132  -0.34346  -0.34017  -0.33585
 Alpha  occ. eigenvalues --   -0.32836  -0.31579  -0.30109  -0.27705  -0.26068
 Alpha  occ. eigenvalues --   -0.25665  -0.25541  -0.22354  -0.21479
 Alpha virt. eigenvalues --   -0.02554  -0.01995  -0.01290  -0.00822   0.00126
 Alpha virt. eigenvalues --    0.00299   0.00571   0.01765   0.01911   0.02232
 Alpha virt. eigenvalues --    0.02446   0.02993   0.03090   0.03877   0.04057

 Mulliken charges:
               1
     1  C   -0.145443
     2  C   -0.194312
     3  N   -0.057926
     4  C   -0.363615
     5  C    0.075191
     6  C    0.254655
     7  C   -0.206089
     8  O   -0.250021
     9  C   -0.500458
    10  C    0.021601
    11  C    0.481438
    12  O   -0.480700
    13  N    0.090858
    14  C   -0.561622
    15  C    0.054579
    16  C    0.529118
    17  C   -0.665240
    18  C    0.091010
    19  C   -0.257490
    20  C    0.076183
    21  C   -0.371597
    22  C   -0.100451
    23  C   -0.299152
    24  C   -0.072668
    25  C   -0.309586
    26  H    0.155481
    27  H    0.157543
    28  H    0.133237
    29  H    0.134270
    30  H    0.131994
    31  H    0.142847
    32  H    0.116607
    33  H    0.148513
    34  H    0.123622
    35  H    0.144203
    36  H    0.158799
    37  H    0.182846
    38  H    0.168781
    39  H    0.145211
    40  H    0.155774
    41  H    0.146783
    42  H    0.147068
    43  H    0.125161
    44  H    0.119753
    45  H    0.123970
    46  H    0.128116
    47  H    0.171156
 Sum of Mulliken charges =  -0.00000

 Dipole moment (field-independent basis, Debye):
    X=             -2.2613    Y=             -3.0373    Z=              0.2964  Tot=              3.7982
 Quadrupole moment (field-independent basis, Debye-Ang):
   XX=           -147.3544   YY=           -161.6383   ZZ=           -145.1210
   XY=             -7.8828   XZ=             -7.3147   YZ=              0.9691

  Exact polarizability:     293.494      -6.974     258.538     -16.872       9.042     182.361
 Approx polarizability:     407.446      -9.662     411.119     -33.778      26.779     303.941

                      1                      2                      3
                      A                      A                      A
 Frequencies --     51.1716                84.4318               114.6731
 Red. masses --      5.1888                 4.1096                 6.3585
 Frc consts  --      0.0080                 0.0173                 0.0493
 IR Inten    --      0.5670                 0.0785                 4.0261

                      4                      5                      6
                      A                      A                      A
 Frequencies --    118.6302               136.8894               168.4783
 Red. masses --      3.6713                 3.3830                 3.9870
 Frc consts  --      0.0304                 0.0374                 0.0667
 IR Inten    --      1.4029                 0.3917                 0.4582

                      7                      8                      9
                      A                      A                      A
 Frequencies --    209.7462               231.0057               252.0161
 Red. masses --      4.0388                 3.1620                 4.2848
 Frc consts  --      0.1047                 0.0994                 0.1603
 IR Inten    --      0.4773                 0.4334                 0.5826

                     10                     11                     12
                      A                      A                      A
 Frequencies --    267.4088               281.9773               295.6793
 Red. masses --      2.9170                 5.2207                 4.1687
 Frc consts  --      0.1229                 0.2446                 0.2147
 IR Inten    --      7.7141                 4.2026                 1.2280

                     13                     14                     15
                      A                      A                      A
 Frequencies --    315.0546               348.5230               362.2297
 Red. masses --      4.2477                 3.6823                 3.8637
 Frc consts  --      0.2484                 0.2635                 0.2987
 IR Inten    --      3.3930                 1.7221                 2.2783

                     16                     17                     18
                      A                      A                      A
 Frequencies --    384.4878               399.8755               412.2533
 Red. masses --      4.4372                 5.0461                 4.2534
 Frc consts  --      0.3865                 0.4754                 0.4259
 IR Inten    --     11.4694                 2.8829                 0.9446

                     19                     20                     21
                      A                      A                      A
 Frequencies --    437.2685               441.5850               457.2979
 Red. masses --      2.4542                 3.2762                 2.4701
 Frc consts  --      0.2765                 0.3764                 0.3043
 IR Inten    --      7.1655                 0.6961                 1.3984

                     22                     23                     24
                      A                      A                      A
 Frequencies --    469.3823               476.8133               507.2961
 Red. masses --      3.0164                 4.6658                 3.7402
 Frc consts  --      0.3916                 0.6250                 0.5671
 IR Inten    --      1.5433                 0.6957                 3.3104

                     25                     26                     27
                      A                      A                      A
 Frequencies --    534.3932               562.5192               571.1420
 Red. masses --      4.7987                 3.5249                 4.4340
 Frc consts  --      0.8074                 0.6572                 0.8522
 IR Inten    --     16.3775                 6.2984                 4.7299

                     28                     29                     30
                      A                      A                      A
 Frequencies --    574.5242               582.9839               633.3676
 Red. masses --      3.9983                 3.5230                 5.1342
 Frc consts  --      0.7776                 0.7055                 1.2135
 IR Inten    --      7.1316                 0.9316                 1.8666

                     31                     32                     33
                      A                      A                      A
 Frequencies --    650.3256               656.2186               672.0070
 Red. masses --      3.6514                 4.2305                 4.0749
 Frc consts  --      0.9099                 1.0734                 1.0842
 IR Inten    --      3.3990                 1.9049                 3.3774

                     34                     35                     36
                      A                      A                      A
 Frequencies --    691.6589               726.0064               737.6971
 Red. masses --      4.6791                 5.0229                 3.5416
 Frc consts  --      1.3189                 1.5599                 1.1356
 IR Inten    --      7.7219                 9.9026                10.0808

                     37                     38                     39
                      A                      A                      A
 Frequencies --    759.6837               768.6882               773.8783
 Red. masses --      2.9546                 1.4790                 3.0510
 Frc consts  --      1.0046                 0.5149                 1.0766
 IR Inten    --      4.8883                55.9247                 2.3054

                     40                     41                     42
                      A                      A                      A
 Frequencies --    780.6782               808.1443               831.7671
 Red. masses --      4.2979                 3.6647                 1.9442
 Frc consts  --      1.5433                 1.4102                 0.7925
 IR Inten    --     13.7108                 4.6699                 0.9224

                     43                     44                     45
                      A                      A                      A
 Frequencies --    843.2975               856.2207               887.0384
 Red. masses --      1.8091                 2.0441                 1.3850
 Frc consts  --      0.7580                 0.8829                 0.6421
 IR Inten    --     10.2138                 4.9521                 2.8001

                     46                     47                     48
                      A                      A                      A
 Frequencies --    898.1924               905.3994               933.4569
 Red. masses --      2.6677                 2.9002                 2.9738
 Frc consts  --      1.2680                 1.4007                 1.5267
 IR Inten    --      3.0610                 1.0942                 5.7609

                     49                     50                     51
                      A                      A                      A
 Frequencies --    945.3566               952.3668               955.9386
 Red. masses --      4.2475                 2.0120                 1.5355
 Frc consts  --      2.2366                 1.0752                 0.8267
 IR Inten    --      0.9116                 0.3813                 2.9471

                     52                     53                     54
                      A                      A                      A
 Frequencies --    965.2276               988.8514               992.2361
 Red. masses --      2.8736                 2.7868                 2.4437
 Frc consts  --      1.5774                 1.6055                 1.4175
 IR Inten    --      7.1156                 0.9498                 7.1298

                     55                     56                     57
                      A                      A                      A
 Frequencies --    993.1459               996.6746              1019.8744
 Red. masses --      1.2957                 2.6758                 2.4974
 Frc consts  --      0.7530                 1.5661                 1.5305
 IR Inten    --      1.1791                 5.7263                 3.7205

                     58                     59                     60
                      A                      A                      A
 Frequencies --   1034.4998              1038.5313              1047.0192
 Red. masses --      2.3699                 2.2004                 2.2136
 Frc consts  --      1.4943                 1.3983                 1.4297
 IR Inten    --      3.7956                 1.1404                16.3958

                     61                     62                     63
                      A                      A                      A
 Frequencies --   1057.2872              1074.4581              1085.6638
 Red. masses --      2.3404                 2.3044                 2.2236
 Frc consts  --      1.5414                 1.5674                 1.5442
 IR Inten    --     32.5023                 0.9255                 0.0274

                     64                     65                     66
                      A                      A                      A
 Frequencies --   1093.1546              1106.5827              1112.3331
 Red. masses --      2.9610                 2.5117                 2.2100
 Frc consts  --      2.0847                 1.8121                 1.6111
 IR Inten    --     15.4981                17.8861                12.6996

                     67                     68                     69
                      A                      A                      A
 Frequencies --   1115.3854              1125.0209              1143.2155
 Red. masses --      3.4994                 2.1173                 2.4937
 Frc consts  --      2.5650                 1.5789                 1.9202
 IR Inten    --      0.4511                 6.2771                46.8703

                     70                     71                     72
                      A                      A                      A
 Frequencies --   1153.0680              1168.8560              1173.4429
 Red. masses --      3.3514                 2.9442                 1.6139
 Frc consts  --      2.6254                 2.3699                 1.3093
 IR Inten    --     18.1221                75.7951                39.4422

                     73                     74                     75
                      A                      A                      A
 Frequencies --   1183.8115              1196.4762              1203.6218
 Red. masses --      1.1644                 2.1752                 1.8428
 Frc consts  --      0.9614                 1.8347                 1.5729
 IR Inten    --      1.0481                 4.3025                 7.8395

                     76                     77                     78
                      A                      A                      A
 Frequencies --   1221.7910              1227.2594              1239.6355
 Red. masses --      1.5000                 1.4515                 1.5516
 Frc consts  --      1.3193                 1.2881                 1.4048
 IR Inten    --      1.1128                 5.8459                13.7516

                     79                     80                     81
                      A                      A                      A
 Frequencies --   1253.0969              1265.6453              1279.7232
 Red. masses --      2.0353                 1.8805                 1.4764
 Frc consts  --      1.8830                 1.7748                 1.4246
 IR Inten    --      5.0693                11.7886                 9.3154

                     82                     83                     84
                      A                      A                      A
 Frequencies --   1296.1924              1297.8819              1299.8672
 Red. masses --      1.4217                 1.1922                 1.5025
 Frc consts  --      1.4073                 1.1832                 1.4958
 IR Inten    --     11.6482                 9.3123                33.2655

                     85                     86                     87
                      A                      A                      A
 Frequencies --   1315.3992              1319.4265              1322.1015
 Red. masses --      1.3499                 1.4980                 1.5458
 Frc consts  --      1.3762                 1.5365                 1.5919
 IR Inten    --     13.2452                 8.2581                 9.2684

                     88                     89                     90
                      A                      A                      A
 Frequencies --   1332.8497              1343.8022              1346.2419
 Red. masses --      1.4677                 1.3774                 1.3660
 Frc consts  --      1.5362                 1.4655                 1.4586
 IR Inten    --     43.8487                 7.1978                 3.3672

                     91                     92                     93
                      A                      A                      A
 Frequencies --   1346.5725              1355.7215              1361.7375
 Red. masses --      1.9588                 1.4537                 1.5749
 Frc consts  --      2.0926                 1.5742                 1.7207
 IR Inten    --     60.7271                 2.3996                 1.3352

                     94                     95                     96
                      A                      A                      A
 Frequencies --   1368.0354              1379.2029              1386.0249
 Red. masses --      2.5069                 1.4028                 1.5489
 Frc consts  --      2.7643                 1.5722                 1.7532
 IR Inten    --      2.4999                 4.5214                12.3408

                     97                     98                     99
                      A                      A                      A
 Frequencies --   1391.2552              1401.9204              1408.2967
 Red. masses --      1.5291                 1.5793                 1.3734
 Frc consts  --      1.7438                 1.8287                 1.6049
 IR Inten    --      2.9535                74.8863                 5.7141

                    100                    101                    102
                      A                      A                      A
 Frequencies --   1415.3544              1420.5311              1480.3130
 Red. masses --      2.0827                 1.3119                 1.0884
 Frc consts  --      2.4581                 1.5597                 1.4053
 IR Inten    --    104.3032                44.7852                 4.0358

                    103                    104                    105
                      A                      A                      A
 Frequencies --   1490.6856              1493.7035              1494.0924
 Red. masses --      1.0870                 1.7895                 1.3154
 Frc consts  --      1.4231                 2.3524                 1.7300
 IR Inten    --     21.7280                27.1680                28.2145

                    106                    107                    108
                      A                      A                      A
 Frequencies --   1497.2319              1511.1277              1521.2181
 Red. masses --      1.1045                 2.7076                 1.0833
 Frc consts  --      1.4587                 3.6428                 1.4771
 IR Inten    --      3.7161                91.7606                 8.0833

                    109                    110                    111
                      A                      A                      A
 Frequencies --   1528.4841              1633.4836              1645.1728
 Red. masses --      1.0981                 6.5765                 6.5509
 Frc consts  --      1.5115                10.3389                10.4466
 IR Inten    --      0.4742                 0.0752                27.6954

                    112                    113                    114
                      A                      A                      A
 Frequencies --   1731.7038              1743.8571              2962.2721
 Red. masses --      7.7921                11.3008                 1.0725
 Frc consts  --     13.7675                20.2480                 5.5452
 IR Inten    --      1.9596               407.4130                44.6024

                    115                    116                    117
                      A                      A                      A
 Frequencies --   2984.7627              3009.7179              3016.0267
 Red. masses --      1.0706                 1.0851                 1.0839
 Frc consts  --      5.6196                 5.7910                 5.8090
 IR Inten    --     40.2268                40.1242                11.5931

                    118                    119                    120
                      A                      A                      A
 Frequencies --   3036.3052              3045.9482              3049.6122
 Red. masses --      1.0680                 1.0867                 1.0810
 Frc consts  --      5.8010                 5.9405                 5.9231
 IR Inten    --     35.6398                36.4443                 9.8702

                    121                    122                    123
                      A                      A                      A
 Frequencies --   3055.5547              3056.3441              3061.3063
 Red. masses --      1.0690                 1.0869                 1.0669
 Frc consts  --      5.8802                 5.9819                 5.8909
 IR Inten    --      4.0365                29.9996                56.9600

                    124                    125                    126
                      A                      A                      A
 Frequencies --   3064.0748              3083.0611              3088.9373
 Red. masses --      1.0658                 1.0865                 1.0860
 Frc consts  --      5.8958                 6.0847                 6.1054
 IR Inten    --     44.4195                19.8654                16.1399

                    127                    128                    129
                      A                      A                      A
 Frequencies --   3094.8846              3101.6948              3107.8003
 Red. masses --      1.1015                 1.0997                 1.1050
 Frc consts  --      6.2164                 6.2334                 6.2883
 IR Inten    --     47.6470                 8.8704                19.1786

                    130                    131                    132
                      A                      A                      A
 Frequencies --   3123.8113              3147.3577              3178.3204
 Red. masses --      1.0878                 1.0966                 1.0866
 Frc consts  --      6.2543                 6.4004                 6.4674
 IR Inten    --     30.2587                 9.4119                 2.4158

                    133                    134                    135
                      A                      A                      A
 Frequencies --   3188.8595              3204.2241              3250.2260
 Red. masses --      1.0901                 1.0960                 1.0932
 Frc consts  --      6.5311                 6.6297                 6.8043
 IR Inten    --     13.7364                24.3964                 1.3777

 - Thermochemistry -
 -------------------
 Temperature   298.150 Kelvin.  Pressure   1.00000 Atm.
 Atom     1 has atomic number  6 and mass  12.00000

 Molecular mass:   334.16813 amu.
 Principal axes and moments of inertia in atomic units:
                           1         2         3
     Eigenvalues --  4881.139737301.11311**********
           X            0.99990  -0.01114  -0.00877
           Y            0.01113   0.99994  -0.00110
           Z            0.00878   0.00101   0.99996
 This molecule is an asymmetric top.
 Rotational symmetry number  1.
 Warning -- assumption of classical behavior for rotation
           may cause significant error
 Rotational temperatures (Kelvin)      0.01774     0.01186     0.00833
 Rotational constants (GHZ):           0.36974     0.24719     0.17347
 Zero-point vibrational energy    1047111.1 (Joules/Mol)
                                  250.26556 (Kcal/Mol)
 Warning -- explicit consideration of  29 degrees of freedom as
           vibrations may cause significant error
 Vibrational temperatures:     73.62   121.48   164.99   170.68   196.95
          (Kelvin)            242.40   301.78   332.37   362.59   384.74
                              405.70   425.42   453.29   501.45   521.17
                              553.19   575.33   593.14   629.13   635.34
                              657.95   675.34   686.03   729.89   768.87
                              809.34   821.75   826.61   838.78   911.27
                              935.67   944.15   966.87   995.14  1044.56
                             1061.38  1093.02  1105.97  1113.44  1123.22
                             1162.74  1196.73  1213.32  1231.91  1276.25
                             1292.30  1302.67  1343.04  1360.16  1370.24
                             1375.38  1388.75  1422.74  1427.61  1428.92
                             1433.99  1467.37  1488.41  1494.21  1506.43
                             1521.20  1545.91  1562.03  1572.81  1592.13
                             1600.40  1604.79  1618.65  1644.83  1659.01
                             1681.72  1688.32  1703.24  1721.46  1731.74
                             1757.88  1765.75  1783.56  1802.93  1820.98
                             1841.24  1864.93  1867.36  1870.22  1892.57
                             1898.36  1902.21  1917.67  1933.43  1936.94
                             1937.42  1950.58  1959.24  1968.30  1984.37
                             1994.18  2001.71  2017.05  2026.22  2036.38
                             2043.83  2129.84  2144.76  2149.11  2149.67
                             2154.18  2174.18  2188.69  2199.15  2350.22
                             2367.04  2491.54  2509.02  4262.05  4294.41
                             4330.31  4339.39  4368.57  4382.44  4387.71
                             4396.26  4397.40  4404.54  4408.52  4435.84
                             4444.29  4452.85  4462.65  4471.43  4494.47
                             4528.35  4572.89  4588.06  4610.16  4676.35

 Zero-point correction=                           0.398824 (Hartree/Particle)
 Thermal correction to Energy=                    0.416059
 Thermal correction to Enthalpy=                  0.417003
 Thermal correction to Gibbs Free Energy=         0.355775
 Sum of electronic and zero-point Energies=          -1073.069431
 Sum of electronic and thermal Energies=             -1073.052196
 Sum of electronic and thermal Enthalpies=           -1073.051251
 Sum of electronic and thermal Free Energies=        -1073.112480

                     E (Thermal)             CV                S
                      KCal/Mol        Cal/Mol-Kelvin    Cal/Mol-Kelvin
 Total                  261.081             76.723            128.866
 Electronic               0.000              0.000              0.000
 Translational            0.889              2.981             43.314
 Rotational               0.889              2.981             34.271
 Vibrational            259.304             70.761             51.280
 Vibration     1          0.595              1.977              4.772
 Vibration     2          0.601              1.960              3.785
 Vibration     3          0.608              1.937              3.188
 Vibration     4          0.609              1.934              3.123
 Vibration     5          0.614              1.916              2.847
 Vibration     6          0.625              1.881              2.452
 Vibration     7          0.642              1.826              2.046
 Vibration     8          0.653              1.794              1.871
 Vibration     9          0.664              1.759              1.716
 Vibration    10          0.673              1.733              1.613
 Vibration    11          0.681              1.707              1.522
 Vibration    12          0.690              1.682              1.441
 Vibration    13          0.702              1.645              1.336
 Vibration    14          0.726              1.578              1.173
 Vibration    15          0.736              1.550              1.113
 Vibration    16          0.753              1.503              1.021
 Vibration    17          0.766              1.470              0.963
 Vibration    18          0.776              1.444              0.919
 Vibration    19          0.798              1.389              0.835
 Vibration    20          0.801              1.379              0.822
 Vibration    21          0.815              1.345              0.774
 Vibration    22          0.826              1.318              0.739
 Vibration    23          0.833              1.301              0.719
 Vibration    24          0.862              1.234              0.640
 Vibration    25          0.889              1.174              0.577
 Vibration    26          0.918              1.112              0.519
 Vibration    27          0.927              1.094              0.502
 Vibration    28          0.931              1.086              0.496
 Vibration    29          0.940              1.068              0.480

 Optimization completed.
    -- Stationary point found.
 Normal termination of Gaussian 16 at Tue Sep  6 14:58:23 2022.
