   * xtb version 6.3.3 (7355c4f) compiled by 'conda@14e9545d6667' on 2020-09-17
          program call               : xtb /home/svss/Project-DBcg-Debug/aqme2_20220329/20220906-example-end-to-end/End-to-end_Workflows/End-to-end workflow 2, SN2 PES/AQME inputs/CSEARCH/crest_xyz/TS1_crest/TS1_crest_xtb1.xyz --opt --input constrain2.inp -c 0 --uhf 0 -P 8
          number of atoms            :                    18
          number of electrons        :                    42
          charge                     :                     0
          spin                       :                   0.0

   ID    Z sym.   atoms
    1    6 C      1-8
    2    1 H      9-18
constraining bond 4 6 to    2.3500000 Å, actual value:    5.1852550 Å
constraining bond 1 7 to    2.3500000 Å, actual value:    4.9570063 Å

          :  Hamiltonian                  GFN2-xTB          :
 * total energy  :   -22.0469807 Eh     change       -0.9592327E-13 Eh
 * total energy  :   -22.0576244 Eh     change       -0.1064364E-01 Eh
 * total energy  :   -22.0593352 Eh     change       -0.1710852E-02 Eh
 * total energy  :   -22.0595182 Eh     change       -0.1830195E-03 Eh
 * total energy  :   -22.0595972 Eh     change       -0.7891752E-04 Eh
 * total energy  :   -22.0596103 Eh     change       -0.1316533E-04 Eh
 * total energy  :   -22.0596155 Eh     change       -0.5182877E-05 Eh
 * total energy  :   -22.0596160 Eh     change       -0.4961951E-06 Eh
   *** GEOMETRY OPTIMIZATION CONVERGED AFTER 8 ITERATIONS ***

 final structure:
================
18
 xtb: 6.3.3 (7355c4f)
C        -0.42538877047049   -1.11008278695798    1.05306349688513
C         0.91552647982517   -0.88856883561117    0.95850149862104
C         1.15172107664989    0.51073289189016    0.93817542252047
C        -0.04176753251729    1.16260712959150    1.02006121588999
C        -1.14066806495731    0.17554942350527    0.77306551710901
C        -0.37432575243774    0.75690827681809    3.30902549296645
C        -0.59554006250630   -0.55329923934281    3.32805240900244
C         0.73805944776810   -0.09751774851477    3.81258433031154
H        -0.91111587537572   -2.06945319984727    1.01988553895124
H         1.68484602186112   -1.63987620158724    0.99093659113310
H         2.12513694961700    0.96856293077509    0.95306311808455
H        -0.18590785682482    2.22690699787593    0.95750965313977
H        -2.05464693761167    0.33802691628513    1.33800162914083
H        -1.40209598652204    0.20420623108568   -0.29239820260606
H        -0.77106189948699    1.73939107905425    3.37141149298602
H        -1.29248925344613   -1.34893943656583    3.41623250822360
H         0.97225037775967   -0.12165144869626    4.87341258526708
H         1.60746763867331   -0.25350097973696    3.17941770236804

          :  Hamiltonian                  GFN2-xTB          :
         :: total energy             -22.059616004610 Eh    ::
         :: gradient norm              0.000269286142 Eh/a0 ::
         :: HOMO-LUMO gap              3.929592958808 eV    ::
         :: SCC energy               -22.469726213294 Eh    ::
         :: -> dispersion             -0.015242857187 Eh    ::
         :: repulsion energy           0.410048136294 Eh    ::

    * Orbital Energies and Occupations

         #    Occupation            Energy/Eh            Energy/eV
      -------------------------------------------------------------
         1        2.0000           -0.6413415             -17.4518
       ...           ...                  ...                  ...
         9        2.0000           -0.5232139             -14.2374
        10        2.0000           -0.5119076             -13.9297
        11        2.0000           -0.4995982             -13.5948
        12        2.0000           -0.4742704             -12.9056
        13        2.0000           -0.4511895             -12.2775
        14        2.0000           -0.4505975             -12.2614
        15        2.0000           -0.4424635             -12.0400
        16        2.0000           -0.4407255             -11.9928
        17        2.0000           -0.4298821             -11.6977
        18        2.0000           -0.4147246             -11.2852
        19        2.0000           -0.4068362             -11.0706
        20        2.0000           -0.3735944             -10.1660
        21        2.0000           -0.3699785             -10.0676 (HOMO)
        22                         -0.2255686              -6.1380 (LUMO)
        23                         -0.2045306              -5.5656
        24                         -0.1322693              -3.5992
        25                         -0.0125050              -0.3403
        26                          0.1029104               2.8003
        27                          0.1130001               3.0749
        28                          0.1138743               3.0987
        29                          0.1279552               3.4818
        30                          0.1566630               4.2630
        31                          0.1583910               4.3100
        32                          0.1981525               5.3920
       ...                                ...                  ...
        42                          0.8000923              21.7716
      -------------------------------------------------------------
                  HL-Gap            0.1444099 Eh            3.9296 eV

     #   Z          covCN         q      C6AA      α(0)
     1   6 C        3.046    -0.034    28.804     8.802
     2   6 C        3.008    -0.038    28.919     8.821
     3   6 C        3.008    -0.038    28.919     8.821
     4   6 C        3.046    -0.034    28.804     8.802
     5   6 C        3.888    -0.062    21.633     6.612
     6   6 C        2.917    -0.038    28.947     8.823
     7   6 C        2.917    -0.038    28.947     8.823
     8   6 C        3.805    -0.060    21.659     6.625
     9   1 H        0.926     0.026     2.648     2.545
    10   1 H        0.926     0.026     2.650     2.546
    11   1 H        0.926     0.026     2.650     2.546
    12   1 H        0.926     0.026     2.648     2.545
    13   1 H        0.925     0.052     2.298     2.371
    14   1 H        0.924     0.062     2.175     2.307
    15   1 H        0.927     0.046     2.374     2.410
    16   1 H        0.927     0.046     2.374     2.410
    17   1 H        0.925     0.010     2.891     2.659
    18   1 H        0.925     0.025     2.665     2.553

Wiberg/Mayer (AO) data.
largest (>0.10) Wiberg bond orders for each atom

     #   Z sym  total        # sym  WBO       # sym  WBO       # sym  WBO
 ---------------------------------------------------------------------------
     1   6 C    3.986 --     2 C    1.619     5 C    1.029     9 H    0.974
                             7 C    0.191     4 C    0.113
     2   6 C    3.989 --     1 C    1.619     3 C    1.262    10 H    0.972
     3   6 C    3.989 --     4 C    1.619     2 C    1.262    11 H    0.972
     4   6 C    3.986 --     3 C    1.619     5 C    1.029    12 H    0.974
                             6 C    0.191     1 C    0.113
     5   6 C    3.998 --     4 C    1.029     1 C    1.029    13 H    0.962
                            14 H    0.923
     6   6 C    3.947 --     7 C    1.712     8 C    0.974    15 H    0.964
                             4 C    0.191
     7   6 C    3.947 --     6 C    1.712     8 C    0.974    16 H    0.964
                             1 C    0.191
     8   6 C    3.920 --     7 C    0.974     6 C    0.974    17 H    0.970
                            18 H    0.953
     9   1 H    0.999 --     1 C    0.974
    10   1 H    0.999 --     2 C    0.972
    11   1 H    0.999 --     3 C    0.972
    12   1 H    0.999 --     4 C    0.974
    13   1 H    0.997 --     5 C    0.962
    14   1 H    0.995 --     5 C    0.923
    15   1 H    0.998 --     6 C    0.964
    16   1 H    0.998 --     7 C    0.964
    17   1 H    0.998 --     8 C    0.970
    18   1 H    0.999 --     8 C    0.953
 ---------------------------------------------------------------------------

molecular dipole:
                 x           y           z       tot (Debye)
 q only:       -0.318       0.051      -0.161
   full:       -0.378       0.061      -0.162       1.057

           -------------------------------------------------
          | TOTAL ENERGY              -22.059616004610 Eh   |
          | GRADIENT NORM               0.000269286142 Eh/α |
          | HOMO-LUMO GAP               3.929592958808 eV   |
           -------------------------------------------------

 * finished run on 2022/09/06 at 17:42:47.956
