   * xtb version 6.3.3 (7355c4f) compiled by 'conda@14e9545d6667' on 2020-09-17
          program call               : xtb /home/svss/Project-DBcg-Debug/aqme2_20220329/20220906-example-end-to-end/End-to-end_Workflows/End-to-end workflow 2, SN2 PES/AQME inputs/CSEARCH/crest_xyz/TS1_crest/TS1_crest.xyz --opt --input constrain1.inp -c 0 --uhf 0 -P 8
          number of atoms            :                    18
          number of electrons        :                    42
          charge                     :                     0
          spin                       :                   0.0

   ID    Z sym.   atoms
    1    6 C      1-8
    2    1 H      9-18
constraining bond 4 6 to    2.3500000 Å, actual value:    5.1852550 Å
constraining bond 1 7 to    2.3500000 Å, actual value:    4.9570063 Å
constraining bond 1 2 to    1.3220000 Å, actual value:    1.3216855 Å
constraining bond 2 3 to    1.4560000 Å, actual value:    1.4564178 Å
constraining bond 3 4 to    1.3210000 Å, actual value:    1.3208182 Å
constraining bond 4 5 to    1.4880000 Å, actual value:    1.4880268 Å
constraining bond 5 1 to    1.4880000 Å, actual value:    1.4883032 Å
constraining bond 6 7 to    1.4460000 Å, actual value:    1.4457845 Å
constraining bond 7 8 to    1.4120000 Å, actual value:    1.4115200 Å
constraining bond 8 6 to    1.4100000 Å, actual value:    1.4103193 Å
constraining bond 1 9 to    1.0860000 Å, actual value:    1.0861794 Å
constraining bond 2 10 to    1.0810000 Å, actual value:    1.0810620 Å
constraining bond 3 11 to    1.0820000 Å, actual value:    1.0819586 Å
constraining bond 4 12 to    1.0850000 Å, actual value:    1.0850987 Å
constraining bond 5 13 to    1.1090000 Å, actual value:    1.1094051 Å
constraining bond 5 14 to    1.1060000 Å, actual value:    1.1060638 Å
constraining bond 6 15 to    1.0830000 Å, actual value:    1.0828868 Å
constraining bond 7 16 to    1.0840000 Å, actual value:    1.0840584 Å
constraining bond 8 17 to    1.1130000 Å, actual value:    1.1130001 Å
constraining bond 8 18 to    1.1130000 Å, actual value:    1.1125065 Å

          :  Hamiltonian                  GFN2-xTB          :
 * total energy  :     4.4672123 Eh     change       -0.3419132E-10 Eh
 * total energy  :    -3.9393381 Eh     change       -0.8406550E+01 Eh
 * total energy  :   -10.3995685 Eh     change       -0.6460230E+01 Eh
 * total energy  :   -14.8495507 Eh     change       -0.4449982E+01 Eh
 * total energy  :   -17.6047138 Eh     change       -0.2755163E+01 Eh
 * total energy  :   -19.3089492 Eh     change       -0.1704235E+01 Eh
 * total energy  :   -20.4163988 Eh     change       -0.1107450E+01 Eh
 * total energy  :   -21.0959447 Eh     change       -0.6795459E+00 Eh
 * total energy  :   -21.4678104 Eh     change       -0.3718656E+00 Eh
 * total energy  :   -21.5124274 Eh     change       -0.4461706E-01 Eh
 * total energy  :   -22.0416256 Eh     change       -0.2683583E-04 Eh
 * total energy  :   -22.0416628 Eh     change       -0.3720627E-04 Eh
 * total energy  :   -22.0416971 Eh     change       -0.3428964E-04 Eh
 * total energy  :   -22.0417197 Eh     change       -0.2266715E-04 Eh
 * total energy  :   -22.0417312 Eh     change       -0.1143736E-04 Eh
 * total energy  :   -22.0417373 Eh     change       -0.6161191E-05 Eh
 * total energy  :   -22.0417395 Eh     change       -0.2213670E-05 Eh
 * total energy  :   -22.0417406 Eh     change       -0.1066147E-05 Eh
 * total energy  :   -22.0417419 Eh     change       -0.1252065E-05 Eh
   *** GEOMETRY OPTIMIZATION CONVERGED AFTER 38 ITERATIONS ***

 final structure:
================
18
 xtb: 6.3.3 (7355c4f)
C        -0.40632157055329   -1.10809916528511    1.04813006875878
C         0.91089548178943   -0.90170329243865    0.95738643978332
C         1.15118411954533    0.52547127475408    0.93635315928207
C        -0.02461955949414    1.15446693476991    1.01432561339940
C        -1.11936183944077    0.17178141503650    0.77123548421637
C        -0.34570502857961    0.79279286178453    3.31002934379814
C        -0.58218503839666   -0.59543390286678    3.33073622372163
C         0.68110779704802   -0.08822651161797    3.77631036161659
H        -0.90539492489737   -2.06963368354000    1.01803164579015
H         1.69177504303030   -1.64674136392239    0.98975014508753
H         2.13394495204771    0.97406252085673    0.95065167831217
H        -0.18156499786926    2.22438283968001    0.95441654614726
H        -2.04486923742080    0.33662535014307    1.34993066421176
H        -1.39848274582224    0.20282445716260   -0.29658266105415
H        -0.78839437074776    1.76738444752327    3.42856620840314
H        -1.32048855621655   -1.36782080137421    3.47029025722698
H         0.97027454637423   -0.12164069640765    4.84693528480302
H         1.57820592960110   -0.25049068423715    3.14350553649014

          :  Hamiltonian                  GFN2-xTB          :
         :: total energy             -22.041741853284 Eh    ::
         :: gradient norm              0.000972328626 Eh/a0 ::
         :: HOMO-LUMO gap              3.622505786841 eV    ::
         :: SCC energy               -22.448685707083 Eh    ::
         :: -> dispersion             -0.015287398527 Eh    ::
         :: repulsion energy           0.401598132406 Eh    ::

    * Orbital Energies and Occupations

         #    Occupation            Energy/Eh            Energy/eV
      -------------------------------------------------------------
         1        2.0000           -0.6437031             -17.5161
       ...           ...                  ...                  ...
         9        2.0000           -0.5240091             -14.2590
        10        2.0000           -0.5136649             -13.9775
        11        2.0000           -0.5010896             -13.6353
        12        2.0000           -0.4748472             -12.9212
        13        2.0000           -0.4539986             -12.3539
        14        2.0000           -0.4509320             -12.2705
        15        2.0000           -0.4430759             -12.0567
        16        2.0000           -0.4376963             -11.9103
        17        2.0000           -0.4252626             -11.5720
        18        2.0000           -0.4191668             -11.4061
        19        2.0000           -0.4133451             -11.2477
        20        2.0000           -0.3806754             -10.3587
        21        2.0000           -0.3575270              -9.7288 (HOMO)
        22                         -0.2244024              -6.1063 (LUMO)
        23                         -0.2178212              -5.9272
        24                         -0.1328166              -3.6141
        25                          0.0146401               0.3984
        26                          0.0817999               2.2259
        27                          0.1029770               2.8021
        28                          0.1142974               3.1102
        29                          0.1188113               3.2330
        30                          0.1326552               3.6097
        31                          0.1449989               3.9456
        32                          0.1905487               5.1851
       ...                                ...                  ...
        42                          0.7157381              19.4762
      -------------------------------------------------------------
                  HL-Gap            0.1331246 Eh            3.6225 eV

     #   Z          covCN         q      C6AA      α(0)
     1   6 C        3.056    -0.028    28.654     8.779
     2   6 C        3.020    -0.037    28.900     8.818
     3   6 C        3.020    -0.037    28.896     8.818
     4   6 C        3.056    -0.028    28.652     8.778
     5   6 C        3.905    -0.060    21.589     6.604
     6   6 C        2.918    -0.044    29.097     8.846
     7   6 C        2.918    -0.044    29.104     8.847
     8   6 C        3.803    -0.031    21.131     6.544
     9   1 H        0.925     0.024     2.668     2.554
    10   1 H        0.926     0.026     2.647     2.544
    11   1 H        0.926     0.026     2.649     2.545
    12   1 H        0.925     0.025     2.666     2.553
    13   1 H        0.923     0.049     2.334     2.389
    14   1 H        0.923     0.058     2.224     2.332
    15   1 H        0.926     0.045     2.389     2.417
    16   1 H        0.926     0.045     2.387     2.416
    17   1 H        0.922    -0.002     3.098     2.753
    18   1 H        0.922     0.017     2.786     2.610

Wiberg/Mayer (AO) data.
largest (>0.10) Wiberg bond orders for each atom

     #   Z sym  total        # sym  WBO       # sym  WBO       # sym  WBO
 ---------------------------------------------------------------------------
     1   6 C    3.988 --     2 C    1.632     5 C    1.026     9 H    0.972
                             7 C    0.215
     2   6 C    3.988 --     1 C    1.632     3 C    1.228    10 H    0.972
     3   6 C    3.988 --     4 C    1.632     2 C    1.228    11 H    0.972
     4   6 C    3.988 --     3 C    1.632     5 C    1.026    12 H    0.972
                             6 C    0.215
     5   6 C    3.997 --     1 C    1.026     4 C    1.026    13 H    0.962
                            14 H    0.926
     6   6 C    3.934 --     7 C    1.619     8 C    1.005    15 H    0.966
                             4 C    0.215
     7   6 C    3.933 --     6 C    1.619     8 C    1.004    16 H    0.966
                             1 C    0.215
     8   6 C    3.948 --     6 C    1.005     7 C    1.004    17 H    0.957
                            18 H    0.936
     9   1 H    0.999 --     1 C    0.972
    10   1 H    0.999 --     2 C    0.972
    11   1 H    0.999 --     3 C    0.972
    12   1 H    0.999 --     4 C    0.972
    13   1 H    0.998 --     5 C    0.962
    14   1 H    0.994 --     5 C    0.926
    15   1 H    0.998 --     6 C    0.966
    16   1 H    0.998 --     7 C    0.966
    17   1 H    0.998 --     8 C    0.957
    18   1 H    1.000 --     8 C    0.936
 ---------------------------------------------------------------------------

molecular dipole:
                 x           y           z       tot (Debye)
 q only:       -0.296       0.048      -0.172
   full:       -0.361       0.059      -0.131       0.988

           -------------------------------------------------
          | TOTAL ENERGY              -22.041741853284 Eh   |
          | GRADIENT NORM               0.000972328626 Eh/α |
          | HOMO-LUMO GAP               3.622505786841 eV   |
           -------------------------------------------------

 * finished run on 2022/09/06 at 17:42:46.160
